LAMMPS (2 Aug 2023 - Update 2)
OMP_NUM_THREADS environment is not set. Defaulting to 1 thread. (src/comm.cpp:98)
  using 1 OpenMP thread(s) per MPI task
Loaded 1 plugins from C:\Program Files\LAMMPS 64-bit 2Aug2023 with GUI\plugins
# Initialization

units		  metal
dimension 	      3
boundary	  f f f
atom_style	 charge


# Atom Definition

read_data atom_definition.txt
Reading data file ...
  triclinic box = (0 0 0) to (200 200 200) with tilt (0 0 0)
  1 by 1 by 1 MPI processor grid
  reading atoms ...
  201 atoms
  read_data CPU = 0.002 seconds
mass		1 63.54

# Settings

pair_style	comb
pair_coeff	* * ffield.comb Cu
Reading comb potential file ffield.comb with DATE: 2011-02-22


timestep         0.001
velocity         all create 300 1551 mom yes rot yes dist gaussian
fix              2 all nvt temp 300 300 $(100.0*dt) drag 0.0 tchain 1
fix              2 all nvt temp 300 300 0.10000000000000000555 drag 0.0 tchain 1
fix              3 all recenter INIT INIT INIT

thermo_style custom step temp pe ke etotal enthalpy epair emol press
thermo 100


# Run a simulation

run              10000
Neighbor list info ...
  update: every = 1 steps, delay = 0 steps, check = yes
  max neighbors/atom: 2000, page size: 100000
  master list distance cutoff = 14
  ghost atom cutoff = 14
  binsize = 7, bins = 29 29 29
  1 neighbor lists, perpetual/occasional/extra = 1 0 0
  (1) pair comb, perpetual
      attributes: full, newton on
      pair build: full/bin/atomonly
      stencil: full/bin/3d
      bin: standard
Per MPI rank memory allocation (min/avg/max) = 6.941 | 6.941 | 6.941 Mbytes
   Step          Temp          PotEng         KinEng         TotEng        Enthalpy        E_pair         E_mol          Press     
         0   300           -478.03003      7.7556087     -470.27442     -1132.5904     -478.03003      0             -132.64338    
       100   504.21798     -577.31717      13.035058     -564.28211     -688.16583     -577.31717      0             -24.810448    
       200   88.474062     -598.53663      2.287234      -596.24939     -701.34021     -598.53663      0             -21.046755    
       300   37.786661     -604.68006      0.97686185    -603.7032      -645.57183     -604.68006      0             -8.3851155    
       400   8.0396062     -605.64101      0.20784013    -605.43317     -597.44873     -605.64101      0              1.5990601    
       500   2.6795091     -605.60628      0.069270746   -605.53701     -591.36018     -605.60628      0              2.8392244    
       600   10.236852     -605.60108      0.2646434     -605.33643     -618.45989     -605.60108      0             -2.628262     
       700   29.804341     -604.89501      0.77050268    -604.12451     -640.49393     -604.89501      0             -7.2837792    
       800   1113.6802     -598.32586      28.790892     -569.53497     -487.43093     -598.32586      0              16.443146    
       900   591.01909     -578.161        15.279043     -562.88195     -399.74463     -578.161        0              32.671848    
      1000   110.6762      -591.87158      2.8612044     -589.01038     -615.48898     -591.87158      0             -5.3029229    
      1100   79.73499      -596.2148       2.0613113     -594.15349     -621.70251     -596.2148       0             -5.5172977    
      1200   110.69206     -599.28247      2.8616144     -596.42085     -595.43515     -599.28247      0              0.19740785   
      1300   186.99365     -600.12715      4.8341653     -595.29299     -582.17021     -600.12715      0              2.6281246    
      1400   294.45195     -596.77426      7.6121803     -589.16208     -586.50973     -596.77426      0              0.53119251   
      1500   361.94504     -590.16583      9.3570138     -580.80882     -570.83394     -590.16583      0              1.9976901    
      1600   420.37646     -587.86062      10.867585     -576.99303     -573.69616     -587.86062      0              0.66027084   
      1700   379.10802     -589.77001      9.8007116     -579.9693      -592.42115     -589.77001      0             -2.4937581    
      1800   279.49269     -594.13288      7.2254532     -586.90742     -584.93179     -594.13288      0              0.39566416   
      1900   237.28687     -597.99499      6.134347      -591.86065     -601.35523     -597.99499      0             -1.9014996    
      2000   213.53987     -599.10633      5.5204388     -593.58589     -589.54038     -599.10633      0              0.81020326   
      2100   215.46491     -597.55273      5.570205      -591.98252     -585.62202     -597.55273      0              1.2738302    
      2200   308.74527     -594.55534      7.9816916     -586.57365     -576.23831     -594.55534      0              2.0698809    
      2300   434.37054     -591.36652      11.22936      -580.13716     -594.95395     -591.36652      0             -2.9673896    
      2400   405.2506      -591.23836      10.47655      -580.76181     -571.45975     -591.23836      0              1.8629435    
      2500   293.8339      -595.1241       7.5962025     -587.52789     -585.36242     -595.1241       0              0.43368352   
      2600   204.55457     -597.51521      5.2881506     -592.22706     -598.60043     -597.51521      0             -1.2764083    
      2700   179.50408     -597.65848      4.6405446     -593.01794     -587.66313     -597.65848      0              1.0724189    
      2800   251.12722     -596.28983      6.4921482     -589.79768     -585.82061     -596.28983      0              0.79649471   
      2900   395.73894     -593.22205      10.230655     -582.9914      -590.36085     -593.22205      0             -1.4758953    
      3000   405.00978     -590.47827      10.470324     -580.00794     -578.91971     -590.47827      0              0.21794209   
      3100   348.0125      -593.47473      8.9968291     -584.4779      -578.91792     -593.47473      0              1.1135079    
      3200   274.78905     -597.06048      7.1038545     -589.95662     -593.43962     -597.06048      0             -0.6975465    
      3300   192.97116     -597.74369      4.9886961     -592.75499     -595.63476     -597.74369      0             -0.57673678   
      3400   214.23461     -597.5846       5.5383994     -592.0462      -591.94816     -597.5846       0              0.019635175  
      3500   330.03946     -596.26254      8.5321897     -587.73035     -588.87492     -596.26254      0             -0.22922617   
      3600   402.68987     -592.71857      10.41035      -582.30822     -585.68918     -592.71857      0             -0.67711177   
      3700   399.10376     -592.31619      10.317642     -581.99855     -581.4138      -592.31619      0              0.11710749   
      3800   298.93036     -594.43032      7.7279564     -586.70236     -586.44616     -594.43032      0              0.051310926  
      3900   245.40765     -597.15885      6.3442857     -590.81457     -586.64113     -597.15885      0              0.83582354   
      4000   215.54868     -597.68074      5.5723708     -592.10837     -595.74525     -597.68074      0             -0.72836563   
      4100   235.49595     -596.49812      6.088048      -590.41007     -579.73384     -596.49812      0              2.1381501    
      4200   343.14928     -595.03939      8.8711052     -586.16829     -581.30998     -595.03939      0              0.97298301   
      4300   388.11903     -592.8258       10.033664     -582.79214     -589.65512     -592.8258       0             -1.3744637    
      4400   361.39977     -593.43151      9.3429174     -584.08859     -593.50665     -593.43151      0             -1.8861753    
      4500   299.38931     -595.96664      7.7398211     -588.22682     -578.49616     -595.96664      0              1.9487794    
      4600   235.51692     -597.20326      6.0885902     -591.11467     -590.6776      -597.20326      0              0.087532275  
      4700   233.21898     -597.45835      6.0291839     -591.42917     -593.15553     -597.45835      0             -0.34574262   
      4800   299.87953     -596.77324      7.7524944     -589.02074     -595.69441     -596.77324      0             -1.3365498    
      4900   350.69058     -594.42804      9.066063      -585.36197     -588.97365     -594.42804      0             -0.72331778   
      5000   365.68218     -593.29673      9.4536264     -583.8431      -590.21779     -593.29673      0             -1.2766712    
      5100   339.15066     -594.72909      8.7677327     -585.96136     -594.37015     -594.72909      0             -1.6840466    
      5200   284.65399     -596.61745      7.3588833     -589.25856     -589.15189     -596.61745      0              0.021362583  
      5300   245.01571     -597.45635      6.3341534     -591.1222      -584.05067     -597.45635      0              1.4162306    
      5400   246.35277     -596.98335      6.3687189     -590.61463     -595.18418     -596.98335      0             -0.91515371   
      5500   296.02868     -595.53829      7.6529419     -587.88534     -594.83585     -595.53829      0             -1.3919925    
      5600   361.57662     -593.76486      9.3474892     -584.41737     -578.29255     -593.76486      0              1.2266313    
      5700   368.3523      -593.96048      9.5226544     -584.43782     -580.36557     -593.96048      0              0.81555725   
      5800   273.34676     -594.9553       7.0665683     -587.88873     -596.57397     -594.9553       0             -1.7394106    
      5900   253.3499      -596.94478      6.5496091     -590.39517     -594.97492     -596.94478      0             -0.91719747   
      6000   259.10241     -597.52293      6.6983231     -590.82461     -583.36841     -597.52293      0              1.4932697    
      6100   271.68541     -596.33116      7.023619      -589.30754     -583.26102     -596.33116      0              1.2109485    
      6200   308.06366     -594.38924      7.9640706     -586.42517     -588.9717      -594.38924      0             -0.50999901   
      6300   378.42449     -593.99583      9.7830409     -584.21279     -597.18143     -593.99583      0             -2.597256     
      6400   346.41877     -594.49955      8.955628      -585.54392     -577.76894     -594.49955      0              1.5571119    
      6500   287.76746     -596.45447      7.4393728     -589.0151      -587.72336     -596.45447      0              0.25869921   
      6600   220.30973     -596.98848      5.6954534     -591.29303     -600.08685     -596.98848      0             -1.7611576    
      6700   240.27834     -597.04057      6.2116827     -590.82888     -592.26036     -597.04057      0             -0.28668459   
      6800   313.34474     -596.02977      8.1005972     -587.92917     -582.54987     -596.02977      0              1.0773245    
      6900   355.93253     -593.87397      9.201578      -584.67239     -586.10755     -593.87397      0             -0.28742129   
      7000   331.80091     -593.28729      8.5777269     -584.70956     -586.66981     -593.28729      0             -0.39258328   
      7100   288.73547     -594.73613      7.4643978     -587.27174     -586.01976     -594.73613      0              0.25073537   
      7200   281.75568     -597.09785      7.2839561     -589.8139      -590.01164     -597.09785      0             -0.039602941  
      7300   235.86008     -597.0067       6.0974616     -590.90924     -582.01073     -597.0067       0              1.7821243    
      7400   260.08787     -596.53536      6.7237993     -589.81156     -596.59555     -596.53536      0             -1.3586444    
      7500   313.84801     -595.08767      8.113608      -586.97406     -581.29442     -595.08767      0              1.1374737    
      7600   370.36572     -594.19724      9.5747052     -584.62253     -590.95516     -594.19724      0             -1.2682488    
      7700   345.43473     -594.72153      8.9301887     -585.79134     -588.236       -594.72153      0             -0.4895977    
      7800   269.81257     -595.61174      6.9752025     -588.63654     -582.90656     -595.61174      0              1.147554     
      7900   268.36503     -597.23993      6.9377806     -590.30215     -589.50815     -597.23993      0              0.15901507   
      8000   271.09958     -597.33114      7.0084741     -590.32266     -585.90804     -597.33114      0              0.88412638   
      8100   304.97541     -596.51074      7.8842331     -588.62651     -591.28509     -596.51074      0             -0.53244028   
      8200   327.11988     -594.58077      8.4567127     -586.12406     -593.60518     -594.58077      0             -1.4982593    
      8300   362.02809     -594.48412      9.3591607     -585.12496     -583.37716     -594.48412      0              0.35003501   
      8400   322.71521     -595.75705      8.342843      -587.41421     -580.46512     -595.75705      0              1.3917089    
      8500   259.87877     -596.8737       6.7183936     -590.1553      -595.02658     -596.8737       0             -0.97558136   
      8600   257.16604     -597.81462      6.648264      -591.16635     -585.25793     -597.81462      0              1.1832923    
      8700   266.66681     -597.04077      6.893878      -590.14689     -592.85791     -597.04077      0             -0.54294218   
      8800   336.78515     -596.01814      8.7065794     -587.31156     -588.27616     -596.01814      0             -0.19318356   
      8900   368.47014     -594.85093      9.5257007     -585.32523     -588.09526     -594.85093      0             -0.55476038   
      9000   339.35998     -594.94385      8.7731441     -586.17071     -592.63529     -594.94385      0             -1.2946755    
      9100   280.72931     -596.02748      7.2574224     -588.77006     -591.8619      -596.02748      0             -0.61920973   
      9200   262.86717     -597.47987      6.7956497     -590.68422     -588.49457     -597.47987      0              0.43852653   
      9300   276.31807     -597.78561      7.1433827     -590.64223     -588.03986     -597.78561      0              0.52118119   
      9400   289.70298     -596.29926      7.4894099     -588.80985     -588.77443     -596.29926      0              0.0070935068 
      9500   337.50997     -595.05179      8.7253175     -586.32647     -584.71652     -595.05179      0              0.32242881   
      9600   336.08675     -594.73869      8.6885245     -586.05017     -587.04652     -594.73869      0             -0.19954251   
      9700   326.29122     -596.34717      8.4352902     -587.91188     -589.32395     -596.34717      0             -0.28279882   
      9800   251.76655     -596.93156      6.5086762     -590.42289     -592.51657     -596.93156      0             -0.41930601   
      9900   250.58538     -597.90202      6.4781406     -591.42388     -586.40255     -597.90202      0              1.0056321    
     10000   261.37545     -597.12542      6.7570858     -590.36834     -586.44221     -597.12542      0              0.78629314   
Loop time of 100.609 on 1 procs for 10000 steps with 201 atoms

Performance: 8.588 ns/day, 2.795 hours/ns, 99.395 timesteps/s, 19.978 katom-step/s
100.0% CPU use with 1 MPI tasks x 1 OpenMP threads

MPI task timing breakdown:
Section |  min time  |  avg time  |  max time  |%varavg| %total
---------------------------------------------------------------
Pair    | 100.46     | 100.46     | 100.46     |   0.0 | 99.85
Neigh   | 0.00332    | 0.00332    | 0.00332    |   0.0 |  0.00
Comm    | 0.003139   | 0.003139   | 0.003139   |   0.0 |  0.00
Output  | 0.043017   | 0.043017   | 0.043017   |   0.0 |  0.04
Modify  | 0.084111   | 0.084111   | 0.084111   |   0.0 |  0.08
Other   |            | 0.01357    |            |       |  0.01

Nlocal:            201 ave         201 max         201 min
Histogram: 1 0 0 0 0 0 0 0 0 0
Nghost:              0 ave           0 max           0 min
Histogram: 1 0 0 0 0 0 0 0 0 0
Neighs:              0 ave           0 max           0 min
Histogram: 1 0 0 0 0 0 0 0 0 0
FullNghs:        39252 ave       39252 max       39252 min
Histogram: 1 0 0 0 0 0 0 0 0 0

Total # of neighbors = 39252
Ave neighs/atom = 195.28358
Neighbor list builds = 12
Dangerous builds = 0

print "All done!"
All done!
Total wall time: 0:01:40
