LAMMPS (2 Aug 2023 - Update 2)
OMP_NUM_THREADS environment is not set. Defaulting to 1 thread. (src/comm.cpp:98)
  using 1 OpenMP thread(s) per MPI task
Loaded 1 plugins from C:\Program Files\LAMMPS 64-bit 2Aug2023 with GUI\plugins
# Initialization

units		  metal
dimension 	      3
boundary	  f f f
atom_style	 charge


# Atom Definition

read_data atom_definition.txt
Reading data file ...
  triclinic box = (0 0 0) to (200 200 200) with tilt (0 0 0)
  1 by 1 by 1 MPI processor grid
  reading atoms ...
  1139 atoms
  read_data CPU = 0.008 seconds
mass		1 63.54

# Settings

pair_style	comb
pair_coeff	* * ffield.comb Cu
Reading comb potential file ffield.comb with DATE: 2011-02-22


timestep         0.001
velocity         all create 300 1551 mom yes rot yes dist gaussian
fix              2 all nvt temp 300 300 $(100.0*dt) drag 0.0 tchain 1
fix              2 all nvt temp 300 300 0.10000000000000000555 drag 0.0 tchain 1
fix              3 all recenter INIT INIT INIT

thermo_style custom step temp pe ke etotal enthalpy epair emol press
thermo 100


# Run a simulation

run              10000
Neighbor list info ...
  update: every = 1 steps, delay = 0 steps, check = yes
  max neighbors/atom: 2000, page size: 100000
  master list distance cutoff = 14
  ghost atom cutoff = 14
  binsize = 7, bins = 29 29 29
  1 neighbor lists, perpetual/occasional/extra = 1 0 0
  (1) pair comb, perpetual
      attributes: full, newton on
      pair build: full/bin/atomonly
      stencil: full/bin/3d
      bin: standard
Per MPI rank memory allocation (min/avg/max) = 8.474 | 8.474 | 8.474 Mbytes
   Step          Temp          PotEng         KinEng         TotEng        Enthalpy        E_pair         E_mol          Press     
         0   300           -3015.6336      44.129414     -2971.5042     -6202.7402     -3015.6336      0             -647.12631    
       100   680.7946      -3352.969       100.14356     -3252.8254     -4611.3332     -3352.969       0             -272.07115    
       200   143.3176      -3481.3865      21.081738     -3460.3048     -4708.6036     -3481.3865      0             -249.99937    
       300   117.88962     -3546.0365      17.341333     -3528.6951     -4540.9402     -3546.0365      0             -202.7244     
       400   152.40406     -3600.9197      22.418339     -3578.5014     -4370.2615     -3600.9197      0             -158.56743    
       500   201.08784     -3649.5612      29.579629     -3619.9816     -4105.9301     -3649.5612      0             -97.321926    
       600   185.62229     -3674.4521      27.304676     -3647.1475     -3725.6753     -3674.4521      0             -15.726924    
       700   100.76487     -3665.1807      14.822315     -3650.3583     -3238.3224     -3665.1807      0              82.519291    
       800   23.668409     -3645.0901      3.4815767     -3641.6085     -2873.8107     -3645.0901      0              153.76845    
       900   718.99481     -3659.6936      105.76273     -3553.9309     -3342.0691     -3659.6936      0              42.429999    
      1000   491.98182     -3591.8049      72.369563     -3519.4353     -4391.6765     -3591.8049      0             -174.68555    
      1100   71.786961     -3579.5654      10.559722     -3569.0057     -4456.5782     -3579.5654      0             -177.75598    
      1200   258.03669     -3617.8436      37.956693     -3579.887      -4087.5619     -3617.8436      0             -101.67312    
      1300   432.66329     -3665.8795      63.643924     -3602.2356     -3698.4211     -3665.8795      0             -19.263282    
      1400   114.72935     -3656.5216      16.876464     -3639.6452     -3262.2037     -3656.5216      0              75.590975    
      1500   68.504711     -3649.8391      10.076909     -3639.7622     -2994.4148     -3649.8391      0              129.24505    
      1600   451.15294     -3663.1828      66.363715     -3596.8191     -3392.6679     -3663.1828      0              40.885783    
      1700   447.22789     -3615.2235      65.786348     -3549.4372     -4308.7477     -3615.2235      0             -152.06868    
      1800   139.84477     -3589.0076      20.570893     -3568.4367     -4444.8961     -3589.0076      0             -175.53032    
      1900   301.19145     -3602.4424      44.304673     -3558.1377     -3996.3635     -3602.4424      0             -87.764372    
      2000   641.88878     -3649.2151      94.420585     -3554.7946     -3557.2139     -3649.2151      0             -0.48452067   
      2100   137.72965     -3642.7505      20.259762     -3622.4907     -3164.9692     -3642.7505      0              91.628786    
      2200   114.66545     -3650.2249      16.867064     -3633.3578     -3091.743      -3650.2249      0              108.47031    
      2300   312.2555      -3663.8492      45.932174     -3617.917      -3521.4041     -3663.8492      0              19.328831    
      2400   349.53213     -3640.2991      51.415493     -3588.8836     -4148.3004     -3640.2991      0             -112.03557    
      2500   259.28169     -3613.1652      38.13983      -3575.0254     -4176.9415     -3613.1652      0             -120.54698    
      2600   339.50084     -3603.0302      49.939911     -3553.0903     -3960.0549     -3603.0302      0             -81.503653    
      2700   483.88803     -3615.6922      71.178983     -3544.5132     -3711.0207     -3615.6922      0             -33.346796    
      2800   236.96761     -3618.3499      34.857472     -3583.4925     -3268.0662     -3618.3499      0              63.171078    
      2900   197.99088     -3625.9634      29.124071     -3596.8393     -3105.5445     -3625.9634      0              98.39263     
      3000   359.82811     -3647.575       52.930011     -3594.645      -3507.3186     -3647.575       0              17.489035    
      3100   323.51404     -3653.6301      47.588283     -3606.0418     -3816.0054     -3653.6301      0             -42.049842    
      3200   210.45872     -3649.816       30.958066     -3618.8579     -3871.5807     -3649.816       0             -50.613306    
      3300   242.17205     -3648.6806      35.623036     -3613.0575     -3783.5256     -3648.6806      0             -34.139998    
      3400   285.69491     -3631.7722      42.025162     -3589.747      -3524.0097     -3631.7722      0              13.165351    
      3500   301.24648     -3603.6234      44.312769     -3559.3106     -3067.0284     -3603.6234      0              98.590389    
      3600   421.7965      -3588.334       62.04544      -3526.2886     -2986.1994     -3588.334       0              108.16478    
      3700   452.05812     -3601.7664      66.496865     -3535.2695     -3603.2197     -3601.7664      0             -13.60853     
      3800   230.52155     -3618.5314      33.90927      -3584.6221     -3915.0659     -3618.5314      0             -66.178662    
      3900   188.38373     -3633.4912      27.710879     -3605.7803     -3932.8454     -3633.4912      0             -65.50199     
      4000   280.4162      -3648.3759      41.248675     -3607.1273     -3759.5437     -3648.3759      0             -30.524758    
      4100   316.44166     -3649.8804      46.54795      -3603.3325     -3453.785      -3649.8804      0              29.950177    
      4200   254.83812     -3640.451       37.486189     -3602.9648     -3103.8246     -3640.451       0              99.963845    
      4300   295.15735     -3636.647       43.417069     -3593.2299     -3150.8412     -3636.647       0              88.598091    
      4400   372.25376     -3635.4314      54.7578       -3580.6736     -3655.455      -3635.4314      0             -14.976617    
      4500   250.76667     -3622.8469      36.887287     -3585.9596     -3921.516      -3622.8469      0             -67.202574    
      4600   211.23345     -3613.4961      31.072027     -3582.424      -4026.5721     -3613.4961      0             -88.950451    
      4700   417.13521     -3619.8721      61.359774     -3558.5123     -3885.6937     -3619.8721      0             -65.525287    
      4800   436.87393     -3629.038       64.263301     -3564.7747     -3524.2534     -3629.038       0              8.1152946    
      4900   221.2342      -3636.188       32.543118     -3603.6449     -3188.8534     -3636.188       0              83.071135    
      5000   189.60731     -3643.0685      27.890865     -3615.1777     -3282.8835     -3643.0685      0              66.54925     
      5100   270.33226     -3645.4503      39.765346     -3605.685      -3608.5383     -3645.4503      0             -0.57143414   
      5200   349.2581      -3634.7368      51.375184     -3583.3617     -3811.7566     -3634.7368      0             -45.741134    
      5300   328.66367     -3618.8618      48.345783     -3570.516      -3980.6089     -3618.8618      0             -82.130149    
      5400   342.04952     -3617.71        50.314816     -3567.3952     -3963.0895     -3617.71        0             -79.246519    
      5500   346.46127     -3629.3956      50.963776     -3578.4319     -3683.1639     -3629.3956      0             -20.974892    
      5600   260.23183     -3636.9305      38.279594     -3598.6509     -3424.7286     -3636.9305      0              34.831782    
      5700   216.42329     -3637.3208      31.835443     -3605.4854     -3280.3388     -3637.3208      0              65.11778     
      5800   292.93996     -3638.044       43.090895     -3594.9531     -3394.8957     -3638.044       0              40.065909    
      5900   353.08054     -3630.4068      51.937457     -3578.4693     -3595.6313     -3630.4068      0             -3.4370622    
      6000   287.52746     -3616.8731      42.294727     -3574.5784     -3839.4307     -3616.8731      0             -53.042508    
      6100   301.65238     -3614.4576      44.372475     -3570.0851     -3929.7827     -3614.4576      0             -72.037388    
      6200   386.17979     -3624.5563      56.806293     -3567.75       -3775.0457     -3624.5563      0             -41.51554     
      6300   316.50726     -3637.3363      46.557599     -3590.7787     -3583.5177     -3637.3363      0              1.4541768    
      6400   218.36102     -3644.2434      32.120479     -3612.1229     -3384.4395     -3644.2434      0              45.59863     
      6500   211.58972     -3644.7408      31.124435     -3613.6163     -3382.4347     -3644.7408      0              46.299218    
      6600   308.14155     -3640.5766      45.327019     -3595.2496     -3520.0341     -3640.5766      0              15.063567    
      6700   347.16147     -3622.8066      51.066773     -3571.7398     -3759.3582     -3622.8066      0             -37.574725    
      6800   316.48331     -3607.231       46.554077     -3560.677      -3877.5141     -3607.231       0             -63.453623    
      6900   352.82883     -3609.2217      51.900431     -3557.3212     -3824.5923     -3609.2217      0             -53.526934    
      7000   361.65956     -3625.0846      53.199414     -3571.8852     -3678.1102     -3625.0846      0             -21.2739      
      7100   255.03501     -3637.5589      37.515151     -3600.0438     -3486.815      -3637.5589      0              22.676566    
      7200   202.14777     -3641.332       29.735542     -3611.5964     -3399.4757     -3641.332       0              42.481856    
      7300   269.35872     -3643.0068      39.622141     -3603.3847     -3461.0701     -3643.0068      0              28.501631    
      7400   368.20808     -3638.3602      54.162688     -3584.1975     -3628.0612     -3638.3602      0             -8.7846664    
      7500   318.89722     -3630.1355      46.909157     -3583.2264     -3761.8361     -3630.1355      0             -35.770545    
      7600   247.36504     -3624.9012      36.386914     -3588.5143     -3770.6915     -3624.9012      0             -36.485021    
      7700   276.93747     -3622.9957      40.736961     -3582.2588     -3667.892      -3622.9957      0             -17.149935    
      7800   343.94633     -3618.8835      50.593832     -3568.2897     -3469.392      -3618.8835      0              19.806438    
      7900   357.82909     -3619.3222      52.635959     -3566.6862     -3332.5372     -3619.3222      0              46.893511    
      8000   314.11076     -3629.6266      46.205079     -3583.4215     -3430.9271     -3629.6266      0              30.540374    
      8100   266.78573     -3640.5462      39.24366      -3601.3025     -3610.2849     -3640.5462      0             -1.7989198    
      8200   235.10146     -3643.186       34.582965     -3608.603      -3721.5139     -3643.186       0             -22.612893    
      8300   261.32193     -3639.4865      38.439944     -3601.0466     -3728.5408     -3639.4865      0             -25.533533    
      8400   324.90618     -3629.9831      47.793064     -3582.19       -3605.8066     -3629.9831      0             -4.7297377    
      8500   337.81314     -3617.3763      49.691652     -3567.6847     -3470.7304     -3617.3763      0              19.417226    
      8600   325.93565     -3615.3341      47.944496     -3567.3896     -3396.8272     -3615.3341      0              34.15888     
      8700   331.45305     -3626.4418      48.756095     -3577.6857     -3480.4941     -3626.4418      0              19.464771    
      8800   269.4847      -3631.261       39.640672     -3591.6203     -3634.7249     -3631.261       0             -8.6326444    
      8900   253.06966     -3633.3536      37.226052     -3596.1276     -3719.5703     -3633.3536      0             -24.722125    
      9000   304.50518     -3634.0647      44.792117     -3589.2726     -3717.2954     -3634.0647      0             -25.639394    
      9100   346.52052     -3632.7841      50.972492     -3581.8116     -3617.6895     -3632.7841      0             -7.1853509    
      9200   304.68961     -3631.4679      44.819245     -3586.6487     -3495.7153     -3631.4679      0              18.211426    
      9300   261.74583     -3630.8855      38.5023       -3592.3832     -3435.6489     -3630.8855      0              31.389493    
      9400   288.66512     -3632.7538      42.462075     -3590.2918     -3499.3676     -3632.7538      0              18.209563    
      9500   324.18692     -3631.8272      47.687263     -3584.1399     -3623.5742     -3631.8272      0             -7.8975908    
      9600   303.14807     -3627.0434      44.592489     -3582.4509     -3707.708      -3627.0434      0             -25.085507    
      9700   287.96992     -3625.4208      42.359812     -3583.061      -3726.7382     -3625.4208      0             -28.774529    
      9800   305.09549     -3626.7953      44.87895      -3581.9164     -3629.2425     -3626.7953      0             -9.4781057    
      9900   308.32606     -3627.2184      45.35416      -3581.8642     -3522.6714     -3627.2184      0              11.854668    
     10000   309.3114      -3630.3184      45.499103     -3584.8193     -3454.0109     -3630.3184      0              26.197267    
Loop time of 714.836 on 1 procs for 10000 steps with 1139 atoms

Performance: 1.209 ns/day, 19.857 hours/ns, 13.989 timesteps/s, 15.934 katom-step/s
100.0% CPU use with 1 MPI tasks x 1 OpenMP threads

MPI task timing breakdown:
Section |  min time  |  avg time  |  max time  |%varavg| %total
---------------------------------------------------------------
Pair    | 714.02     | 714.02     | 714.02     |   0.0 | 99.89
Neigh   | 0.31547    | 0.31547    | 0.31547    |   0.0 |  0.04
Comm    | 0.006027   | 0.006027   | 0.006027   |   0.0 |  0.00
Output  | 0.044354   | 0.044354   | 0.044354   |   0.0 |  0.01
Modify  | 0.39946    | 0.39946    | 0.39946    |   0.0 |  0.06
Other   |            | 0.05292    |            |       |  0.01

Nlocal:           1139 ave        1139 max        1139 min
Histogram: 1 0 0 0 0 0 0 0 0 0
Nghost:              0 ave           0 max           0 min
Histogram: 1 0 0 0 0 0 0 0 0 0
Neighs:              0 ave           0 max           0 min
Histogram: 1 0 0 0 0 0 0 0 0 0
FullNghs:       537322 ave      537322 max      537322 min
Histogram: 1 0 0 0 0 0 0 0 0 0

Total # of neighbors = 537322
Ave neighs/atom = 471.7489
Neighbor list builds = 42
Dangerous builds = 0

print "All done!"
All done!
Total wall time: 0:11:54
