LAMMPS (2 Aug 2023 - Update 2)
OMP_NUM_THREADS environment is not set. Defaulting to 1 thread. (src/comm.cpp:98)
  using 1 OpenMP thread(s) per MPI task
Loaded 1 plugins from C:\Program Files\LAMMPS 64-bit 2Aug2023 with GUI\plugins
# Initialization

units		  metal
dimension 	      3
boundary	  f f f
atom_style	 atomic


# Atom Definition

read_data atom_definition.txt
Reading data file ...
  orthogonal box = (-0 -0 -0) to (200 200 200)
  1 by 1 by 1 MPI processor grid
  reading atoms ...
  711 atoms
  read_data CPU = 0.006 seconds


# Settings

pair_style tersoff/mod/c
pair_coeff * * Au.tersoff.modc Au


timestep         0.001
velocity         all create 300 1551 mom yes rot yes dist gaussian
fix              2 all nvt temp 300 300 $(100.0*dt) drag 0.0 tchain 1
fix              2 all nvt temp 300 300 0.10000000000000000555 drag 0.0 tchain 1
fix              3 all recenter INIT INIT INIT

thermo_style custom step temp pe ke etotal enthalpy epair emol press
thermo 100


# Run a simulation

run              10000
Neighbor list info ...
  update: every = 1 steps, delay = 0 steps, check = yes
  max neighbors/atom: 2000, page size: 100000
  master list distance cutoff = 5.35
  ghost atom cutoff = 5.35
  binsize = 2.675, bins = 75 75 75
  1 neighbor lists, perpetual/occasional/extra = 1 0 0
  (1) pair tersoff/mod/c, perpetual
      attributes: full, newton on
      pair build: full/bin/atomonly
      stencil: full/bin/3d
      bin: standard
Per MPI rank memory allocation (min/avg/max) = 4.991 | 4.991 | 4.991 Mbytes
   Step          Temp          PotEng         KinEng         TotEng        Enthalpy        E_pair         E_mol          Press     
         0   300           -2295.9247      27.532411     -2268.3923     -3939.0038     -2295.9247      0             -334.57679    
       100   772.34944     -2376.3392      70.882141     -2305.4571     -3627.65       -2376.3392      0             -264.79829    
       200   282.86993     -2454.3513      25.960304     -2428.391      -3233.8006     -2454.3513      0             -161.30105    
       300   154.13891     -2494.5139      14.146053     -2480.3678     -3206.241      -2494.5139      0             -145.37212    
       400   169.29975     -2523.9326      15.537434     -2508.3951     -3096.6542     -2523.9326      0             -117.81185    
       500   232.49183     -2549.9479      21.336869     -2528.611      -2931.9284     -2549.9479      0             -80.773197    
       600   268.9435      -2568.9758      24.68221      -2544.2936     -2693.4635     -2568.9758      0             -29.874563    
       700   201.145       -2571.7089      18.460023     -2553.2489     -2411.5485     -2571.7089      0              28.378638    
       800   168.42173     -2565.0942      15.456854     -2549.6374     -2143.1055     -2565.0942      0              81.416986    
       900   293.53747     -2555.6589      26.939314     -2528.7196     -1924.9822     -2555.6589      0              120.91173    
      1000   568.00214     -2544.4712      52.128228     -2492.343      -2027.0451     -2544.4712      0              93.186169    
      1100   396.46074     -2549.9068      36.385066     -2513.5217     -2612.1798     -2549.9068      0             -19.758453    
      1200   209.02712     -2563.0776      19.183402     -2543.8942     -2826.9954     -2563.0776      0             -56.697255    
      1300   180.46085     -2571.7351      16.561741     -2555.1734     -2823.5056     -2571.7351      0             -53.739454    
      1400   253.68491     -2576.3978      23.281857     -2553.116      -2716.795      -2576.3978      0             -32.780342    
      1500   361.29605     -2575.9755      33.157838     -2542.8177     -2503.5499     -2575.9755      0              7.864244     
      1600   292.76952     -2567.6072      26.868836     -2540.7384     -2251.6558     -2567.6072      0              57.895159    
      1700   312.51795     -2569.5725      28.681242     -2540.8912     -2163.2476     -2569.5725      0              75.631469    
      1800   354.93662     -2577.2175      32.574203     -2544.6433     -2254.8222     -2577.2175      0              58.043068    
      1900   302.26834     -2586.9403      27.740587     -2559.1997     -2544.0674     -2586.9403      0              3.0305645    
      2000   223.36891     -2591.6825      20.499615     -2571.1829     -2774.3826     -2591.6825      0             -40.695217    
      2100   220.16425     -2591.6505      20.205509     -2571.445      -2798.9626     -2591.6505      0             -45.565426    
      2200   325.92258     -2589.6242      29.911448     -2559.7127     -2678.6763     -2589.6242      0             -23.825076    
      2300   409.01002     -2585.5644      37.536773     -2548.0277     -2544.653      -2585.5644      0              0.67584938   
      2400   339.74577     -2587.8006      31.180067     -2556.6205     -2371.6403     -2587.8006      0              37.046373    
      2500   280.6694      -2597.4275      25.758351     -2571.6691     -2389.8845     -2597.4275      0              36.406385    
      2600   256.55193     -2605.1999      23.544978     -2581.6549     -2462.7971     -2605.1999      0              23.803907    
      2700   255.05263     -2607.6079      23.407379     -2584.2005     -2579.9682     -2607.6079      0              0.84761567   
      2800   284.10515     -2606.1231      26.073666     -2580.0495     -2709.3025     -2606.1231      0             -25.88577     
      2900   316.52348     -2601.8136      29.048848     -2572.7647     -2725.2836     -2601.8136      0             -30.545262    
      3000   379.08316     -2602.5309      34.790244     -2567.7407     -2678.8314     -2602.5309      0             -22.248381    
      3100   337.16183     -2605.7002      30.942927     -2574.7573     -2591.0423     -2605.7002      0             -3.2614302    
      3200   278.98332     -2612.4976      25.603611     -2586.894      -2542.5366     -2612.4976      0              8.8835596    
      3300   242.11818     -2616.0107      22.220324     -2593.7904     -2527.8073     -2616.0107      0              13.214574    
      3400   265.06674     -2616.9933      24.326422     -2592.6668     -2523.3941     -2616.9933      0              13.873393    
      3500   305.06015     -2614.046       27.996805     -2586.0492     -2548.0448     -2614.046       0              7.6112252    
      3600   365.52539     -2612.9829      33.545984     -2579.4369     -2669.9523     -2612.9829      0             -18.1277      
      3700   331.0565      -2612.3251      30.382612     -2581.9425     -2665.4998     -2612.3251      0             -16.734207    
      3800   298.06321     -2616.0598      27.354663     -2588.7052     -2646.1302     -2616.0598      0             -11.500636    
      3900   267.63259     -2619.0796      24.561901     -2594.5177     -2585.0483     -2619.0796      0              1.8964499    
      4000   263.68605     -2619.3675      24.199709     -2595.1678     -2579.4091     -2619.3675      0              3.1560138    
      4100   303.82247     -2619.0172      27.883217     -2591.134      -2523.0364     -2619.0172      0              13.638043    
      4200   336.59849     -2618.1632      30.891226     -2587.272      -2546.4923     -2618.1632      0              8.1670161    
      4300   326.91354     -2618.1716      30.002393     -2588.1692     -2615.2206     -2618.1716      0             -5.4176501    
      4400   302.75349     -2620.0285      27.785111     -2592.2434     -2592.4513     -2620.0285      0             -0.041633057  
      4500   282.22353     -2622.5045      25.900981     -2596.6035     -2626.851      -2622.5045      0             -6.057727     
      4600   276.26174     -2623.6844      25.353839     -2598.3306     -2607.3718     -2623.6844      0             -1.8107033    
      4700   301.25851     -2623.8167      27.64791      -2596.1688     -2603.9592     -2623.8167      0             -1.5601882    
      4800   310.44142     -2621.3392      28.490669     -2592.8485     -2578.2202     -2621.3392      0              2.9296286    
      4900   308.94194     -2620.4137      28.353055     -2592.0606     -2606.8709     -2620.4137      0             -2.9660906    
      5000   297.26883     -2621.7073      27.281758     -2594.4256     -2559.1902     -2621.7073      0              7.0566651    
      5100   288.60511     -2623.6208      26.486648     -2597.1342     -2610.5404     -2623.6208      0             -2.6848936    
      5200   296.3102      -2625.4551      27.19378      -2598.2613     -2569.7968     -2625.4551      0              5.7006469    
      5300   297.83985     -2625.4657      27.334164     -2598.1315     -2607.5569     -2625.4657      0             -1.8876396    
      5400   296.94969     -2624.4586      27.252469     -2597.2062     -2618.6547     -2624.4586      0             -4.2955389    
      5500   298.85282     -2623.5195      27.427129     -2596.0923     -2592.7125     -2623.5195      0              0.67688202   
      5600   313.24421     -2624.0403      28.747894     -2595.2924     -2607.4845     -2624.0403      0             -2.441753     
      5700   304.34937     -2624.6595      27.931573     -2596.7279     -2589.3471     -2624.6595      0              1.4781616    
      5800   288.01855     -2625.4232      26.432816     -2598.9904     -2568.5248     -2625.4232      0              6.1013986    
      5900   286.72596     -2626.1077      26.31419      -2599.7935     -2606.1246     -2626.1077      0             -1.2679411    
      6000   294.27847     -2626.0372      27.007319     -2599.0299     -2570.4163     -2626.0372      0              5.7305067    
      6100   305.36947     -2625.6346      28.025193     -2597.6094     -2600.388      -2625.6346      0             -0.55646632   
      6200   306.10772     -2625.0338      28.092945     -2596.9408     -2624.1564     -2625.0338      0             -5.4505255    
      6300   318.11211     -2626.2137      29.194644     -2597.019      -2608.5867     -2626.2137      0             -2.3166819    
      6400   291.82659     -2624.6469      26.782299     -2597.8646     -2577.3908     -2624.6469      0              4.1003427    
      6500   306.36034     -2626.2577      28.11613      -2598.1416     -2610.6158     -2626.2577      0             -2.4982351    
      6600   292.43346     -2626.2395      26.837994     -2599.4015     -2571.9564     -2626.2395      0              5.4964924    
      6700   295.46154     -2627.0277      27.115895     -2599.9118     -2561.5634     -2627.0277      0              7.6801185    
      6800   304.28082     -2627.4462      27.925282     -2599.5209     -2640.0943     -2627.4462      0             -8.1257168    
      6900   306.1574      -2627.3501      28.097505     -2599.2526     -2631.409      -2627.3501      0             -6.4400099    
      7000   295.3478      -2627.2414      27.105457     -2600.1359     -2613.7138     -2627.2414      0             -2.7192726    
      7100   303.39392     -2629.1917      27.843887     -2601.3478     -2582.045      -2629.1917      0              3.8658121    
      7200   280.53281     -2627.98        25.745815     -2602.2342     -2614.7059     -2627.98        0             -2.4977334    
      7300   298.25008     -2628.6563      27.371813     -2601.2844     -2564.7843     -2628.6563      0              7.3099595    
      7400   305.56899     -2628.3964      28.043504     -2600.3529     -2565.2482     -2628.3964      0              7.0304807    
      7500   320.97499     -2630.0038      29.457384     -2600.5464     -2642.045      -2630.0038      0             -8.3110098    
      7600   295.76601     -2629.8491      27.143837     -2602.7052     -2595.3192     -2629.8491      0              1.4792198    
      7700   293.29081     -2630.5595      26.916677     -2603.6428     -2643.8111     -2630.5595      0             -8.0445869    
      7800   292.43137     -2630.2681      26.837802     -2603.4303     -2606.502      -2630.2681      0             -0.61516118   
      7900   298.62443     -2629.6377      27.406169     -2602.2315     -2592.5201     -2629.6377      0              1.9449265    
      8000   301.42317     -2629.0204      27.663022     -2601.3574     -2567.6242     -2629.0204      0              6.7558284    
      8100   292.29333     -2628.9923      26.825133     -2602.1671     -2596.0985     -2628.9923      0              1.2153715    
      8200   301.97022     -2630.7553      27.713227     -2603.0421     -2614.2183     -2630.7553      0             -2.2382748    
      8300   289.77254     -2630.2007      26.593789     -2603.6069     -2619.7612     -2630.2007      0             -3.235255     
      8400   294.71897     -2630.16        27.047746     -2603.1123     -2621.1018     -2630.16        0             -3.6027971    
      8500   291.30033     -2629.6247      26.734002     -2602.8907     -2646.2132     -2629.6247      0             -8.6762831    
      8600   313.80507     -2631.2627      28.799367     -2602.4633     -2585.1407     -2631.2627      0              3.4692397    
      8700   299.4173      -2630.4843      27.478934     -2603.0054     -2579.8293     -2630.4843      0              4.6415243    
      8800   297.538       -2630.6147      27.306462     -2603.3082     -2579.4658     -2630.6147      0              4.7749601    
      8900   303.96508     -2631.0346      27.896305     -2603.1383     -2575.3858     -2631.0346      0              5.5580419    
      9000   298.32384     -2630.39        27.378582     -2603.0114     -2600.9016     -2630.39        0              0.42252397   
      9100   295.49725     -2629.8015      27.119172     -2602.6823     -2632.6647     -2629.8015      0             -6.0046507    
      9200   317.99049     -2630.9564      29.183483     -2601.7729     -2634.2901     -2630.9564      0             -6.5122718    
      9300   305.42652     -2630.2561      28.030428     -2602.2257     -2629.0374     -2630.2561      0             -5.3696339    
      9400   298.93993     -2630.6607      27.435124     -2603.2256     -2575.8971     -2630.6607      0              5.473129     
      9500   303.50097     -2631.4709      27.853712     -2603.6172     -2597.2159     -2631.4709      0              1.2819859    
      9600   298.15083     -2630.7161      27.362704     -2603.3534     -2575.1231     -2630.7161      0              5.6537383    
      9700   302.39826     -2630.4789      27.75251      -2602.7264     -2622.7931     -2630.4789      0             -4.0188117    
      9800   291.14061     -2629.7174      26.719343     -2602.9981     -2594.776      -2629.7174      0              1.6466557    
      9900   299.39234     -2630.4563      27.476643     -2602.9796     -2585.4263     -2630.4563      0              3.5154306    
     10000   297.93198     -2631.0834      27.342619     -2603.7407     -2608.2028     -2631.0834      0             -0.89362671   
Loop time of 431.733 on 1 procs for 10000 steps with 711 atoms

Performance: 2.001 ns/day, 11.993 hours/ns, 23.162 timesteps/s, 16.469 katom-step/s
100.0% CPU use with 1 MPI tasks x 1 OpenMP threads

MPI task timing breakdown:
Section |  min time  |  avg time  |  max time  |%varavg| %total
---------------------------------------------------------------
Pair    | 431.39     | 431.39     | 431.39     |   0.0 | 99.92
Neigh   | 0.01285    | 0.01285    | 0.01285    |   0.0 |  0.00
Comm    | 0.006522   | 0.006522   | 0.006522   |   0.0 |  0.00
Output  | 0.03961    | 0.03961    | 0.03961    |   0.0 |  0.01
Modify  | 0.25233    | 0.25233    | 0.25233    |   0.0 |  0.06
Other   |            | 0.03178    |            |       |  0.01

Nlocal:            711 ave         711 max         711 min
Histogram: 1 0 0 0 0 0 0 0 0 0
Nghost:              0 ave           0 max           0 min
Histogram: 1 0 0 0 0 0 0 0 0 0
Neighs:              0 ave           0 max           0 min
Histogram: 1 0 0 0 0 0 0 0 0 0
FullNghs:        29124 ave       29124 max       29124 min
Histogram: 1 0 0 0 0 0 0 0 0 0

Total # of neighbors = 29124
Ave neighs/atom = 40.962025
Neighbor list builds = 8
Dangerous builds = 0

print "All done!"
All done!
Total wall time: 0:07:11
