LAMMPS (2 Aug 2023 - Update 2)
OMP_NUM_THREADS environment is not set. Defaulting to 1 thread. (src/comm.cpp:98)
  using 1 OpenMP thread(s) per MPI task
Loaded 1 plugins from C:\Program Files\LAMMPS 64-bit 2Aug2023 with GUI\plugins
# Initialization

units		  metal
dimension 	      3
boundary	  f f f
atom_style	 atomic


# Atom Definition

newton on
read_data atom_definition.txt
Reading data file ...
  orthogonal box = (-0 -0 -0) to (200 200 200)
  1 by 1 by 1 MPI processor grid
  reading atoms ...
  1139 atoms
  read_data CPU = 0.009 seconds


# Settings

pair_style mliap model nn Cu.nn.mliap.model descriptor sna Cu.snap.mliap.descriptor
Reading potential file Cu.nn.mliap.model with DATE: 2021-03-03
Reading potential file Cu.snap.mliap.descriptor with DATE: 2021-03-03
SNAP keyword rcutfac 5.0 
SNAP keyword twojmax 6 
SNAP keyword nelems 1 
SNAP keyword elems Cu 
SNAP keyword radelems 0.5 
SNAP keyword welems 1.0 
SNAP keyword rfac0 0.99363 
SNAP keyword rmin0 0 
SNAP keyword bzeroflag 0 
SNAP keyword switchflag 1 
pair_coeff * * Cu


timestep         0.001
velocity         all create 300 1551 mom yes rot yes dist gaussian
fix              2 all nvt temp 300 300 $(100.0*dt) drag 0.0 tchain 1
fix              2 all nvt temp 300 300 0.10000000000000000555 drag 0.0 tchain 1
fix              3 all recenter INIT INIT INIT

thermo_style custom step temp pe ke etotal enthalpy epair emol press
thermo 100


# Run a simulation

run              10000
Neighbor list info ...
  update: every = 1 steps, delay = 0 steps, check = yes
  max neighbors/atom: 2000, page size: 100000
  master list distance cutoff = 7
  ghost atom cutoff = 7
  binsize = 3.5, bins = 58 58 58
  1 neighbor lists, perpetual/occasional/extra = 1 0 0
  (1) pair mliap, perpetual
      attributes: full, newton on
      pair build: full/bin/atomonly
      stencil: full/bin/3d
      bin: standard
Per MPI rank memory allocation (min/avg/max) = 32.02 | 32.02 | 32.02 Mbytes
   Step          Temp          PotEng         KinEng         TotEng        Enthalpy        E_pair         E_mol          Press     
         0   300           -3800.3472      44.129414     -3756.2178     -7836.1252     -3800.3472      0             -817.09147    
       100   889.78712     -4156.9023      130.88595     -4026.0163     -5285.5806     -4156.9023      0             -252.25555    
       200   164.84587     -4338.711       24.248505     -4314.4625     -5103.1593     -4338.711       0             -157.95393    
       300   96.142656     -4404.944       14.142397     -4390.8016     -5032.3355     -4404.944       0             -128.48132    
       400   103.22787     -4449.5639      15.184618     -4434.3793     -4915.268      -4449.5639      0             -96.308571    
       500   137.44288     -4484.1797      20.21758      -4463.9621     -4769.0698     -4484.1797      0             -61.104541    
       600   200.70586     -4509.476       29.52344      -4479.9526     -4573.304      -4509.476       0             -18.695683    
       700   234.21169     -4513.8351      34.452081     -4479.383      -4245.6089     -4513.8351      0              46.818424    
       800   282.40643     -4504.2297      41.541434     -4462.6882     -3964.8867     -4504.2297      0              99.69573     
       900   405.53759     -4497.3933      59.653786     -4437.7395     -4060.0784     -4497.3933      0              75.634957    
      1000   391.30722     -4501.0679      57.560527     -4443.5074     -4488.3184     -4501.0679      0             -8.9743956    
      1100   242.21864     -4505.0335      35.629889     -4469.4036     -4741.8677     -4505.0335      0             -54.566951    
      1200   221.36504     -4511.2871      32.562365     -4478.7247     -4714.1921     -4511.2871      0             -47.157539    
      1300   285.56829     -4513.5657      42.006537     -4471.5591     -4577.0794     -4513.5657      0             -21.132766    
      1400   330.45156     -4506.9409      48.608778     -4458.3321     -4341.3643     -4506.9409      0              23.425379    
      1500   331.76703     -4503.194       48.802282     -4454.3918     -4220.6838     -4503.194       0              46.805185    
      1600   324.25296     -4509.3897      47.696976     -4461.6927     -4275.8082     -4509.3897      0              37.227465    
      1700   278.39289     -4515.3038      40.951049     -4474.3528     -4474.9908     -4515.3038      0             -0.12778709   
      1800   253.18259     -4517.767       37.242664     -4480.5243     -4602.298      -4517.767       0             -24.387859    
      1900   272.46094     -4515.7131      40.078471     -4475.6346     -4605.0351     -4515.7131      0             -25.915297    
      2000   328.20809     -4511.8516      48.278769     -4463.5729     -4497.9573     -4511.8516      0             -6.8862498    
      2100   339.95159     -4507.6348      50.006214     -4457.6285     -4382.4127     -4507.6348      0              15.063638    
      2200   327.97013     -4512.5405      48.243765     -4464.2967     -4374.0903     -4512.5405      0              18.065829    
      2300   282.34005     -4518.7029      41.53167      -4477.1712     -4421.8947     -4518.7029      0              11.07035     
      2400   255.06035     -4521.7627      37.518879     -4484.2438     -4496.9049     -4521.7627      0             -2.5356712    
      2500   273.5054      -4521.5227      40.232109     -4481.2906     -4551.8393     -4521.5227      0             -14.128934    
      2600   312.91061     -4517.0673      46.028539     -4471.0387     -4531.9656     -4517.0673      0             -12.20195     
      2700   343.39689     -4513.2705      50.513012     -4462.7575     -4463.1241     -4513.2705      0             -0.073417672  
      2800   326.56924     -4514.021       48.037696     -4465.9833     -4423.8212     -4514.021       0              8.4438959    
      2900   289.34383     -4519.3681      42.561911     -4476.8062     -4437.8079     -4519.3681      0              7.810268     
      3000   272.2192      -4524.9836      40.042912     -4484.9407     -4465.7919     -4524.9836      0              3.834966     
      3100   274.26332     -4526.4141      40.343598     -4486.0705     -4481.0719     -4526.4141      0              1.0010698    
      3200   291.36042     -4523.0559      42.858548     -4480.1974     -4492.0187     -4523.0559      0             -2.3674742    
      3300   328.24549     -4519.4872      48.28427      -4471.2029     -4482.0976     -4519.4872      0             -2.1818911    
      3400   320.81238     -4515.8011      47.190874     -4468.6103     -4483.5481     -4515.8011      0             -2.9916371    
      3500   302.12067     -4518.0337      44.44136      -4473.5924     -4494.4409     -4518.0337      0             -4.1753753    
      3600   288.42556     -4522.9712      42.426837     -4480.5444     -4488.336      -4522.9712      0             -1.5604407    
      3700   283.76114     -4526.5889      41.740708     -4484.8482     -4475.8557     -4526.5889      0              1.8009623    
      3800   285.85387     -4526.7139      42.048546     -4484.6654     -4471.6031     -4526.7139      0              2.616003     
      3900   295.0793      -4524.802       43.405589     -4481.3964     -4457.4121     -4524.802       0              4.8033774    
      4000   314.26402     -4524.0711      46.227623     -4477.8435     -4493.139      -4524.0711      0             -3.0632633    
      4100   306.68722     -4523.3861      45.11309      -4478.273      -4490.1625     -4523.3861      0             -2.3811318    
      4200   303.00167     -4525.5411      44.570954     -4480.9701     -4509.0151     -4525.5411      0             -5.6166224    
      4300   291.73099     -4526.7115      42.913058     -4483.7984     -4498.0466     -4526.7115      0             -2.8535192    
      4400   278.19959     -4525.6342      40.922615     -4484.7115     -4476.1104     -4525.6342      0              1.7225611    
      4500   295.49489     -4526.361       43.466721     -4482.8943     -4453.3649     -4526.361       0              5.9139085    
      4600   309.54007     -4526.8407      45.532738     -4481.308      -4467.3373     -4526.8407      0              2.7979454    
      4700   310.74252     -4527.0713      45.709617     -4481.3617     -4473.7363     -4527.0713      0              1.5271506    
      4800   294.10699     -4526.5835      43.262563     -4483.3209     -4488.1637     -4526.5835      0             -0.96988282   
      4900   297.36503     -4528.621       43.741815     -4484.8792     -4521.5707     -4528.621       0             -7.3482758    
      5000   288.03114     -4528.0418      42.368817     -4485.673      -4506.0498     -4528.0418      0             -4.0808932    
      5100   299.96526     -4528.2782      44.124304     -4484.1539     -4474.0557     -4528.2782      0              2.0223869    
      5200   303.2238      -4525.4574      44.603628     -4480.8538     -4462.9779     -4525.4574      0              3.5800374    
      5300   308.29136     -4524.5516      45.349057     -4479.2026     -4447.43       -4524.5516      0              6.3631622    
      5400   309.25615     -4525.8264      45.490976     -4480.3354     -4477.4576     -4525.8264      0              0.57635422   
      5500   298.41016     -4527.1923      43.895551     -4483.2967     -4490.1826     -4527.1923      0             -1.3790505    
      5600   297.85053     -4529.3258      43.813231     -4485.5126     -4502.9484     -4529.3258      0             -3.4918977    
      5700   294.56559     -4528.9127      43.330022     -4485.5827     -4511.2217     -4528.9127      0             -5.1347736    
      5800   295.2911      -4526.5941      43.436744     -4483.1574     -4477.5826     -4526.5941      0              1.1164753    
      5900   314.40687     -4527.2323      46.248636     -4480.9837     -4465.5321     -4527.2323      0              3.0945168    
      6000   302.67215     -4527.448       44.522481     -4482.9256     -4456.4841     -4527.448       0              5.2954809    
      6100   290.03495     -4528.4733      42.663575     -4485.8098     -4477.0017     -4528.4733      0              1.7640083    
      6200   298.47293     -4530.5146      43.904785     -4486.6098     -4489.3058     -4530.5146      0             -0.53992683   
      6300   293.89741     -4528.91        43.231734     -4485.6782     -4497.5683     -4528.91        0             -2.3812441    
      6400   311.96633     -4529.8281      45.889638     -4483.9385     -4504.995      -4529.8281      0             -4.217029     
      6500   307.98412     -4529.973       45.303861     -4484.6691     -4492.8641     -4529.973       0             -1.6412115    
      6600   297.53173     -4530.282       43.766336     -4486.5156     -4488.585      -4530.282       0             -0.41443148   
      6700   291.66364     -4530.3236      42.903152     -4487.4204     -4486.3185     -4530.3236      0              0.22067066   
      6800   300.57065     -4530.9235      44.213355     -4486.7102     -4483.9783     -4530.9235      0              0.54711498   
      6900   294.5193      -4528.5516      43.323213     -4485.2284     -4471.6475     -4528.5516      0              2.7198809    
      7000   300.83513     -4528.3107      44.25226      -4484.0584     -4479.2041     -4528.3107      0              0.97219704   
      7100   306.38692     -4530.0853      45.068917     -4485.0164     -4467.7421     -4530.0853      0              3.4595664    
      7200   298.31669     -4530.5172      43.881801     -4486.6354     -4505.0555     -4530.5172      0             -3.6890288    
      7300   296.07541     -4531.4924      43.552114     -4487.9403     -4482.0031     -4531.4924      0              1.1890601    
      7400   303.0792      -4532.3466      44.582358     -4487.7643     -4486.7619     -4532.3466      0              0.20073651   
      7500   301.39112     -4531.5747      44.334045     -4487.2406     -4486.3329     -4531.5747      0              0.18178736   
      7600   304.52124     -4531.0285      44.794479     -4486.234      -4471.2407     -4531.0285      0              3.0027367    
      7700   309.61381     -4531.2616      45.543586     -4485.7181     -4493.4079     -4531.2616      0             -1.5400644    
      7800   300.43283     -4531.4039      44.193082     -4487.2108     -4492.8684     -4531.4039      0             -1.1330594    
      7900   295.85717     -4532.5971      43.520011     -4489.077      -4497.2603     -4532.5971      0             -1.638877     
      8000   298.14876     -4532.9726      43.8571       -4489.1155     -4492.3434     -4532.9726      0             -0.64645802   
      8100   302.14742     -4532.1253      44.445295     -4487.68       -4490.6854     -4532.1253      0             -0.60189224   
      8200   304.28059     -4530.9262      44.75908      -4486.1671     -4488.408      -4530.9262      0             -0.44879945   
      8300   302.32921     -4530.2754      44.472035     -4485.8034     -4484.9145     -4530.2754      0              0.17801543   
      8400   298.57856     -4531.1495      43.920323     -4487.2292     -4488.8172     -4531.1495      0             -0.3180371    
      8500   289.44023     -4531.9302      42.576092     -4489.3541     -4504.1801     -4531.9302      0             -2.9692428    
      8600   299.27853     -4533.781       44.023286     -4489.7577     -4505.2151     -4533.781       0             -3.0956829    
      8700   296.32238     -4532.5944      43.588443     -4489.006      -4500.8401     -4532.5944      0             -2.3700479    
      8800   301.85144     -4531.3689      44.401757     -4486.9671     -4460.7412     -4531.3689      0              5.2523211    
      8900   312.35511     -4532.7785      45.946826     -4486.8317     -4447.7312     -4532.7785      0              7.8307385    
      9000   294.62942     -4532.699       43.339412     -4489.3596     -4457.3639     -4532.699       0              6.4078491    
      9100   293.87385     -4534.4421      43.228269     -4491.2139     -4474.924      -4534.4421      0              3.2624063    
      9200   301.8169      -4535.0213      44.396676     -4490.6246     -4507.0053     -4535.0213      0             -3.2805846    
      9300   300.91491     -4533.009       44.263995     -4488.745      -4504.262      -4533.009       0             -3.1076197    
      9400   307.96228     -4532.963       45.300649     -4487.6623     -4526.7592     -4532.963       0             -7.8300156    
      9500   304.71034     -4533.751       44.822295     -4488.9287     -4510.8784     -4533.751       0             -4.3959195    
      9600   298.04501     -4534.497       43.841838     -4490.6552     -4515.0051     -4534.497       0             -4.8765989    
      9700   299.43319     -4536.0523      44.046037     -4492.0063     -4487.8897     -4536.0523      0              0.82442627   
      9800   298.78719     -4536.8624      43.951011     -4492.9114     -4479.7008     -4536.8624      0              2.6457027    
      9900   293.11841     -4535.7185      43.117145     -4492.6013     -4459.6888     -4535.7185      0              6.5914506    
     10000   307.70954     -4536.2284      45.263472     -4490.9649     -4476.9003     -4536.2284      0              2.8167606    
Loop time of 2626.03 on 1 procs for 10000 steps with 1139 atoms

Performance: 0.329 ns/day, 72.945 hours/ns, 3.808 timesteps/s, 4.337 katom-step/s
100.0% CPU use with 1 MPI tasks x 1 OpenMP threads

MPI task timing breakdown:
Section |  min time  |  avg time  |  max time  |%varavg| %total
---------------------------------------------------------------
Pair    | 2625.2     | 2625.2     | 2625.2     |   0.0 | 99.97
Neigh   | 0.17772    | 0.17772    | 0.17772    |   0.0 |  0.01
Comm    | 0.014242   | 0.014242   | 0.014242   |   0.0 |  0.00
Output  | 0.039357   | 0.039357   | 0.039357   |   0.0 |  0.00
Modify  | 0.5116     | 0.5116     | 0.5116     |   0.0 |  0.02
Other   |            | 0.08696    |            |       |  0.00

Nlocal:           1139 ave        1139 max        1139 min
Histogram: 1 0 0 0 0 0 0 0 0 0
Nghost:              0 ave           0 max           0 min
Histogram: 1 0 0 0 0 0 0 0 0 0
Neighs:              0 ave           0 max           0 min
Histogram: 1 0 0 0 0 0 0 0 0 0
FullNghs:        88630 ave       88630 max       88630 min
Histogram: 1 0 0 0 0 0 0 0 0 0

Total # of neighbors = 88630
Ave neighs/atom = 77.813872
Neighbor list builds = 53
Dangerous builds = 0

print "All done!"
All done!
Total wall time: 0:43:46
