 Start File for LAMMPS

 405 atoms

 1 atom types
 
  -0.0 200.0 xlo xhi
  -0.0 200.0 ylo yhi
  -0.0 200.0 zlo zhi
  
 Masses

 1  28.085
 
 Atoms

1	1	93.9852	100	90.0128
2	1	95.9633	97.9691	89.9242
3	1	95.9633	102.031	89.9242
4	1	97.9691	95.9633	89.9242
5	1	97.9809	100	89.79
6	1	97.9691	104.037	89.9242
7	1	100	93.9852	90.0128
8	1	100	97.9809	89.79
9	1	100	102.019	89.79
10	1	100	106.015	90.0128
11	1	102.031	95.9633	89.9242
12	1	102.019	100	89.79
13	1	102.031	104.037	89.9242
14	1	104.037	97.9691	89.9242
15	1	104.037	102.031	89.9242
16	1	106.015	100	90.0128
17	1	91.9348	100	91.9348
18	1	93.8113	97.8276	91.8155
19	1	93.8113	102.172	91.8155
20	1	95.808	95.808	91.785
21	1	95.9629	100	91.9271
22	1	95.808	104.192	91.785
23	1	97.8276	93.8113	91.8155
24	1	97.9748	97.9748	91.8859
25	1	97.9748	102.025	91.886
26	1	97.8276	106.189	91.8156
27	1	100	91.9348	91.9348
28	1	100	95.9629	91.9271
29	1	100	100	91.8343
30	1	100	104.037	91.9271
31	1	100	108.065	91.9349
32	1	102.172	93.8113	91.8155
33	1	102.025	97.9748	91.886
34	1	102.025	102.025	91.886
35	1	102.172	106.189	91.8156
36	1	104.192	95.808	91.785
37	1	104.037	100	91.9271
38	1	104.192	104.192	91.785
39	1	106.189	97.8276	91.8156
40	1	106.189	102.172	91.8156
41	1	108.065	100	91.9349
42	1	90.0127	100	93.9853
43	1	91.8155	97.8276	93.8113
44	1	91.8155	102.172	93.8113
45	1	93.771	95.7796	93.771
46	1	93.9039	100	93.904
47	1	93.771	104.22	93.771
48	1	95.7796	93.771	93.771
49	1	95.8737	97.8978	93.8595
50	1	95.8738	102.102	93.8595
51	1	95.7796	106.229	93.771
52	1	97.8276	91.8155	93.8113
53	1	97.8978	95.8737	93.8595
54	1	97.9582	100	93.9268
55	1	97.8978	104.126	93.8595
56	1	97.8276	108.185	93.8113
57	1	100	90.0127	93.9853
58	1	100	93.9039	93.904
59	1	100	97.9582	93.9268
60	1	100	102.042	93.9268
61	1	100	106.096	93.904
62	1	100	109.987	93.9853
63	1	102.172	91.8155	93.8113
64	1	102.102	95.8737	93.8595
65	1	102.042	100	93.9268
66	1	102.102	104.126	93.8595
67	1	102.172	108.184	93.8113
68	1	104.22	93.771	93.771
69	1	104.126	97.8978	93.8595
70	1	104.126	102.102	93.8595
71	1	104.22	106.229	93.771
72	1	106.229	95.7796	93.771
73	1	106.096	100	93.904
74	1	106.229	104.22	93.771
75	1	108.185	97.8276	93.8113
76	1	108.185	102.172	93.8114
77	1	109.987	100	93.9853
78	1	89.9241	97.9691	95.9633
79	1	89.9241	102.031	95.9633
80	1	91.7849	95.808	95.808
81	1	91.927	100	95.9629
82	1	91.785	104.192	95.808
83	1	93.771	93.771	95.7797
84	1	93.8594	97.8978	95.8738
85	1	93.8594	102.102	95.8738
86	1	93.771	106.229	95.7797
87	1	95.808	91.7849	95.808
88	1	95.8527	95.8527	95.8528
89	1	95.902	100	95.902
90	1	95.8527	104.147	95.8528
91	1	95.808	108.215	95.808
92	1	97.9691	89.9241	95.9633
93	1	97.8978	93.8594	95.8738
94	1	97.925	97.925	95.9045
95	1	97.925	102.075	95.9045
96	1	97.8979	106.141	95.8738
97	1	97.9691	110.076	95.9633
98	1	100	91.927	95.963
99	1	100	95.902	95.902
100	1	100	100	95.9474
101	1	100	104.098	95.902
102	1	100	108.073	95.963
103	1	102.031	89.9241	95.9633
104	1	102.102	93.8594	95.8738
105	1	102.075	97.925	95.9045
106	1	102.075	102.075	95.9045
107	1	102.102	106.141	95.8738
108	1	102.031	110.076	95.9633
109	1	104.192	91.785	95.808
110	1	104.147	95.8527	95.8528
111	1	104.098	100	95.902
112	1	104.147	104.147	95.8528
113	1	104.192	108.215	95.808
114	1	106.229	93.771	95.7797
115	1	106.141	97.8978	95.8738
116	1	106.141	102.102	95.8738
117	1	106.229	106.229	95.7797
118	1	108.215	95.808	95.808
119	1	108.073	100	95.963
120	1	108.215	104.192	95.808
121	1	110.076	97.9691	95.9633
122	1	110.076	102.031	95.9633
123	1	89.9241	95.9633	97.9691
124	1	89.79	100	97.9809
125	1	89.9242	104.037	97.9691
126	1	91.8155	93.8113	97.8276
127	1	91.8859	97.9748	97.9748
128	1	91.8859	102.025	97.9748
129	1	91.8155	106.189	97.8276
130	1	93.8113	91.8155	97.8276
131	1	93.8594	95.8738	97.8979
132	1	93.9267	100	97.9582
133	1	93.8595	104.126	97.8979
134	1	93.8113	108.185	97.8276
135	1	95.9633	89.9242	97.9691
136	1	95.8738	93.8594	97.8979
137	1	95.9045	97.925	97.925
138	1	95.9045	102.075	97.925
139	1	95.8738	106.141	97.8979
140	1	95.9633	110.076	97.9691
141	1	97.9748	91.8859	97.9748
142	1	97.925	95.9045	97.925
143	1	97.9477	100	97.9477
144	1	97.925	104.095	97.925
145	1	97.9748	108.114	97.9748
146	1	100	89.79	97.9809
147	1	100	93.9267	97.9582
148	1	100	97.9477	97.9477
149	1	100	102.052	97.9477
150	1	100	106.073	97.9582
151	1	100	110.21	97.9809
152	1	102.025	91.8859	97.9748
153	1	102.075	95.9045	97.925
154	1	102.052	100	97.9477
155	1	102.075	104.095	97.925
156	1	102.025	108.114	97.9748
157	1	104.037	89.9242	97.9691
158	1	104.126	93.8595	97.8979
159	1	104.095	97.925	97.925
160	1	104.095	102.075	97.925
161	1	104.126	106.141	97.8979
162	1	104.037	110.076	97.9691
163	1	106.189	91.8155	97.8276
164	1	106.141	95.8738	97.8979
165	1	106.073	100	97.9582
166	1	106.14	104.126	97.8979
167	1	106.189	108.184	97.8276
168	1	108.185	93.8113	97.8276
169	1	108.114	97.9748	97.9748
170	1	108.114	102.025	97.9748
171	1	108.184	106.189	97.8276
172	1	110.076	95.9633	97.9691
173	1	110.21	100	97.9809
174	1	110.076	104.037	97.9691
175	1	90.0127	93.9853	100
176	1	89.79	97.9809	100
177	1	89.79	102.019	100
178	1	90.0128	106.015	100
179	1	91.9348	91.9348	100
180	1	91.927	95.9629	100
181	1	91.8343	100	100
182	1	91.9271	104.037	100
183	1	91.9349	108.065	100
184	1	93.9852	90.0127	100
185	1	93.9039	93.904	100
186	1	93.9267	97.9582	100
187	1	93.9268	102.042	100
188	1	93.904	106.096	100
189	1	93.9853	109.987	100
190	1	95.9629	91.927	100
191	1	95.902	95.902	100
192	1	95.9474	100	100
193	1	95.902	104.098	100
194	1	95.963	108.073	100
195	1	97.9809	89.79	100
196	1	97.9582	93.9267	100
197	1	97.9477	97.9477	100
198	1	97.9477	102.052	99.9999
199	1	97.9582	106.073	100
200	1	97.9809	110.21	100
201	1	100	91.8343	100
202	1	100	95.9474	100
203	1	100	99.9999	99.9999
204	1	100	104.053	100
205	1	100	108.166	100
206	1	102.019	89.79	100
207	1	102.042	93.9268	100
208	1	102.052	97.9477	99.9999
209	1	102.052	102.052	99.9999
210	1	102.042	106.073	100
211	1	102.019	110.21	100
212	1	104.037	91.9271	100
213	1	104.098	95.902	100
214	1	104.053	100	100
215	1	104.098	104.098	100
216	1	104.037	108.073	100
217	1	106.015	90.0128	100
218	1	106.096	93.904	100
219	1	106.073	97.9582	100
220	1	106.073	102.042	100
221	1	106.096	106.096	100
222	1	106.015	109.987	100
223	1	108.065	91.9349	100
224	1	108.073	95.9629	100
225	1	108.166	100	100
226	1	108.073	104.037	100
227	1	108.065	108.065	100
228	1	109.987	93.9853	100
229	1	110.21	97.9809	100
230	1	110.21	102.019	100
231	1	109.987	106.015	100
232	1	89.9241	95.9633	102.031
233	1	89.79	100	102.019
234	1	89.9242	104.037	102.031
235	1	91.8155	93.8113	102.172
236	1	91.8859	97.9748	102.025
237	1	91.886	102.025	102.025
238	1	91.8156	106.189	102.172
239	1	93.8113	91.8155	102.172
240	1	93.8595	95.8738	102.102
241	1	93.9268	100	102.042
242	1	93.8595	104.126	102.102
243	1	93.8114	108.184	102.172
244	1	95.9633	89.9242	102.031
245	1	95.8738	93.8595	102.102
246	1	95.9045	97.925	102.075
247	1	95.9045	102.075	102.075
248	1	95.8738	106.14	102.102
249	1	95.9633	110.076	102.031
250	1	97.9748	91.8859	102.025
251	1	97.9251	95.9045	102.075
252	1	97.9477	100	102.052
253	1	97.9251	104.095	102.075
254	1	97.9748	108.114	102.025
255	1	100	89.79	102.019
256	1	100	93.9268	102.042
257	1	100	97.9477	102.052
258	1	100	102.052	102.052
259	1	100	106.073	102.042
260	1	100	110.21	102.019
261	1	102.025	91.8859	102.025
262	1	102.075	95.9045	102.075
263	1	102.052	100	102.052
264	1	102.075	104.095	102.075
265	1	102.025	108.114	102.025
266	1	104.037	89.9242	102.031
267	1	104.126	93.8595	102.102
268	1	104.095	97.9251	102.075
269	1	104.095	102.075	102.075
270	1	104.126	106.14	102.102
271	1	104.037	110.076	102.031
272	1	106.189	91.8156	102.172
273	1	106.141	95.8738	102.102
274	1	106.073	100	102.042
275	1	106.14	104.126	102.102
276	1	106.189	108.184	102.172
277	1	108.184	93.8113	102.172
278	1	108.114	97.9748	102.025
279	1	108.114	102.025	102.025
280	1	108.184	106.189	102.172
281	1	110.076	95.9633	102.031
282	1	110.21	100	102.019
283	1	110.076	104.037	102.031
284	1	89.9242	97.9691	104.037
285	1	89.9242	102.031	104.037
286	1	91.785	95.808	104.192
287	1	91.9271	100	104.037
288	1	91.785	104.192	104.192
289	1	93.771	93.771	104.22
290	1	93.8595	97.8979	104.126
291	1	93.8595	102.102	104.126
292	1	93.771	106.229	104.22
293	1	95.808	91.785	104.192
294	1	95.8528	95.8528	104.147
295	1	95.902	100	104.098
296	1	95.8528	104.147	104.147
297	1	95.8081	108.215	104.192
298	1	97.9691	89.9242	104.037
299	1	97.8979	93.8595	104.126
300	1	97.9251	97.925	104.095
301	1	97.9251	102.075	104.095
302	1	97.8979	106.14	104.126
303	1	97.9691	110.076	104.037
304	1	100	91.9271	104.037
305	1	100	95.902	104.098
306	1	100	100	104.053
307	1	100	104.098	104.098
308	1	100	108.073	104.037
309	1	102.031	89.9242	104.037
310	1	102.102	93.8595	104.126
311	1	102.075	97.925	104.095
312	1	102.075	102.075	104.095
313	1	102.102	106.14	104.126
314	1	102.031	110.076	104.037
315	1	104.192	91.785	104.192
316	1	104.147	95.8528	104.147
317	1	104.098	100	104.098
318	1	104.147	104.147	104.147
319	1	104.192	108.215	104.192
320	1	106.229	93.771	104.22
321	1	106.14	97.8979	104.126
322	1	106.14	102.102	104.126
323	1	106.229	106.229	104.22
324	1	108.215	95.808	104.192
325	1	108.073	100	104.037
326	1	108.215	104.192	104.192
327	1	110.076	97.9691	104.037
328	1	110.076	102.031	104.037
329	1	90.0128	100	106.015
330	1	91.8155	97.8276	106.189
331	1	91.8156	102.172	106.189
332	1	93.771	95.7797	106.229
333	1	93.904	100	106.096
334	1	93.771	104.22	106.229
335	1	95.7797	93.771	106.229
336	1	95.8738	97.8979	106.141
337	1	95.8738	102.102	106.141
338	1	95.7797	106.229	106.229
339	1	97.8276	91.8156	106.189
340	1	97.8979	95.8738	106.141
341	1	97.9582	100	106.073
342	1	97.8979	104.126	106.141
343	1	97.8276	108.184	106.189
344	1	100	90.0128	106.015
345	1	100	93.904	106.096
346	1	100	97.9582	106.073
347	1	100	102.042	106.073
348	1	100	106.096	106.096
349	1	100	109.987	106.015
350	1	102.172	91.8156	106.189
351	1	102.102	95.8738	106.141
352	1	102.042	100	106.073
353	1	102.102	104.126	106.14
354	1	102.172	108.184	106.189
355	1	104.22	93.771	106.229
356	1	104.126	97.8979	106.14
357	1	104.126	102.102	106.14
358	1	104.22	106.229	106.229
359	1	106.229	95.7797	106.229
360	1	106.096	100	106.096
361	1	106.229	104.22	106.229
362	1	108.184	97.8276	106.189
363	1	108.184	102.172	106.189
364	1	109.987	100	106.015
365	1	91.9349	100	108.065
366	1	93.8113	97.8276	108.185
367	1	93.8113	102.172	108.185
368	1	95.808	95.808	108.215
369	1	95.963	100	108.073
370	1	95.808	104.192	108.215
371	1	97.8276	93.8113	108.185
372	1	97.9748	97.9748	108.114
373	1	97.9748	102.025	108.114
374	1	97.8276	106.189	108.184
375	1	100	91.9349	108.065
376	1	100	95.9629	108.073
377	1	100	100	108.166
378	1	100	104.037	108.073
379	1	100	108.065	108.065
380	1	102.172	93.8113	108.185
381	1	102.025	97.9748	108.114
382	1	102.025	102.025	108.114
383	1	102.172	106.189	108.184
384	1	104.192	95.808	108.215
385	1	104.037	100	108.073
386	1	104.192	104.192	108.215
387	1	106.189	97.8276	108.184
388	1	106.189	102.172	108.184
389	1	108.065	100	108.065
390	1	93.9853	100	109.987
391	1	95.9633	97.9691	110.076
392	1	95.9633	102.031	110.076
393	1	97.9691	95.9633	110.076
394	1	97.9809	100	110.21
395	1	97.9691	104.037	110.076
396	1	100	93.9853	109.987
397	1	100	97.9809	110.21
398	1	100	102.019	110.21
399	1	100	106.015	109.987
400	1	102.031	95.9633	110.076
401	1	102.019	100	110.21
402	1	102.031	104.037	110.076
403	1	104.037	97.9691	110.076
404	1	104.037	102.031	110.076
405	1	106.015	100	109.987


