LAMMPS (2 Aug 2023 - Update 2)
OMP_NUM_THREADS environment is not set. Defaulting to 1 thread. (src/comm.cpp:98)
  using 1 OpenMP thread(s) per MPI task
Loaded 1 plugins from C:\Program Files\LAMMPS 64-bit 2Aug2023 with GUI\plugins
# Initialization

units		  metal
dimension 	      3
boundary	  f f f
atom_style	 atomic


# Atom Definition

read_data atom_definition.txt
Reading data file ...
  orthogonal box = (-0 -0 -0) to (200 200 200)
  1 by 1 by 1 MPI processor grid
  reading atoms ...
  405 atoms
  read_data CPU = 0.003 seconds


# Settings

pair_style mliap model nn Si.nn.mliap.model descriptor so3 Si.nn.mliap.descriptor
SO3 keyword rcutfac 5.0 
SO3 keyword nmax 3 
SO3 keyword lmax 4 
SO3 keyword alpha 2.0 
SO3 keyword nelems 1 
SO3 keyword elems Si 
SO3 keyword radelems 0.5 
SO3 keyword welems 14 
pair_coeff * * Si Si


timestep         0.001
velocity         all create 300 1551 mom yes rot yes dist gaussian
fix              2 all nvt temp 300 300 $(100.0*dt) drag 0.0 tchain 1
fix              2 all nvt temp 300 300 0.10000000000000000555 drag 0.0 tchain 1
fix              3 all recenter INIT INIT INIT

thermo_style custom step temp pe ke etotal enthalpy epair emol press
thermo 100


# Run a simulation

run              10000
Neighbor list info ...
  update: every = 1 steps, delay = 0 steps, check = yes
  max neighbors/atom: 2000, page size: 100000
  master list distance cutoff = 7
  ghost atom cutoff = 7
  binsize = 3.5, bins = 58 58 58
  1 neighbor lists, perpetual/occasional/extra = 1 0 0
  (1) pair mliap, perpetual
      attributes: full, newton on
      pair build: full/bin/atomonly
      stencil: full/bin/3d
      bin: standard
Per MPI rank memory allocation (min/avg/max) = 372.3 | 372.3 | 372.3 Mbytes
   Step          Temp          PotEng         KinEng         TotEng        Enthalpy        E_pair         E_mol          Press     
         0   300           -1507.8284      15.66633      -1492.1621     -1676.4243     -1507.8284      0             -36.902564    
       100   299.92623     -1510.506       15.662477     -1494.8435     -1419.3373     -1510.506       0              15.121783    
       200   267.16863     -1514.6077      13.95184      -1500.6558     -1476.2214     -1514.6077      0              4.893543     
       300   235.77145     -1515.8533      12.312244     -1503.5411     -1469.0634     -1515.8533      0              6.9049109    
       400   273.34646     -1516.0389      14.274452     -1501.7644     -1488.6351     -1516.0389      0              2.6294284    
       500   295.81588     -1512.4564      15.44783      -1497.0086     -1496.6755     -1512.4564      0              0.066705415  
       600   332.51907     -1509.2793      17.364511     -1491.9148     -1492.9262     -1509.2793      0             -0.20255667   
       700   319.0078      -1507.1092      16.658938     -1490.4502     -1493.7429     -1507.1092      0             -0.65943625   
       800   292.16513     -1506.7365      15.257184     -1491.4793     -1494.7675     -1506.7365      0             -0.65854119   
       900   271.70591     -1506.192       14.188781     -1492.0032     -1498.1782     -1506.192       0             -1.2366907    
      1000   303.65941     -1506.6254      15.857428     -1490.768      -1489.2419     -1506.6254      0              0.30564663   
      1100   309.37666     -1505.5827      16.155989     -1489.4267     -1496.5777     -1505.5827      0             -1.4321507    
      1200   296.97808     -1504.4519      15.508522     -1488.9434     -1486.0558     -1504.4519      0              0.5783014    
      1300   300.4046      -1504.7591      15.687458     -1489.0717     -1491.0069     -1504.7591      0             -0.38756837   
      1400   300.36864     -1504.8147      15.68558      -1489.1291     -1491.852      -1504.8147      0             -0.54531907   
      1500   303.26594     -1505.1279      15.83688      -1489.291      -1483.4467     -1505.1279      0              1.1704568    
      1600   280.54338     -1504.559       14.650284     -1489.9087     -1498.5511     -1504.559       0             -1.7308244    
      1700   292.97626     -1504.489       15.299542     -1489.1895     -1485.914      -1504.489       0              0.65599329   
      1800   319.01753     -1504.6977      16.659446     -1488.0383     -1481.7347     -1504.6977      0              1.2624302    
      1900   296.33435     -1503.9639      15.474905     -1488.489      -1489.0064     -1503.9639      0             -0.10362394   
      2000   302.11456     -1504.9893      15.776754     -1489.2126     -1495.4069     -1504.9893      0             -1.2405593    
      2100   289.11911     -1504.2884      15.098117     -1489.1903     -1487.4875     -1504.2884      0              0.34103215   
      2200   312.45237     -1504.3019      16.316606     -1487.9853     -1492.2003     -1504.3019      0             -0.84414746   
      2300   309.34072     -1503.9004      16.154112     -1487.7462     -1486.0974     -1503.9004      0              0.33020873   
      2400   294.91682     -1504.0007      15.40088      -1488.5999     -1496.0502     -1504.0007      0             -1.4920905    
      2500   290.26955     -1504.5934      15.158195     -1489.4352     -1486.9066     -1504.5934      0              0.50640098   
      2600   289.1917      -1504.4799      15.101908     -1489.378      -1492.8145     -1504.4799      0             -0.68824409   
      2700   308.86416     -1504.5057      16.129226     -1488.3765     -1489.3997     -1504.5057      0             -0.20493085   
      2800   314.85375     -1504.0935      16.442009     -1487.6515     -1488.9117     -1504.0935      0             -0.25237113   
      2900   293.07535     -1503.5606      15.304717     -1488.2559     -1491.3523     -1503.5606      0             -0.62011341   
      3000   289.02724     -1503.1861      15.09332      -1488.0928     -1491.3706     -1503.1861      0             -0.65646347   
      3100   307.03695     -1503.0541      16.033807     -1487.0203     -1483.1134     -1503.0541      0              0.78245651   
      3200   316.8468      -1503.6057      16.546088     -1487.0597     -1480.7794     -1503.6057      0              1.2577698    
      3300   290.11681     -1504.0221      15.150218     -1488.8719     -1484.4446     -1504.0221      0              0.88665375   
      3400   282.47561     -1505.1779      14.751187     -1490.4267     -1491.9177     -1505.1779      0             -0.29860202   
      3500   264.60579     -1504.2422      13.818005     -1490.4242     -1487.1613     -1504.2422      0              0.6534601    
      3600   315.56543     -1504.6151      16.479173     -1488.1359     -1487.3669     -1504.6151      0              0.1540231    
      3700   346.20492     -1504.879       18.079201     -1486.7998     -1485.6548     -1504.879       0              0.22931049   
      3800   300.24398     -1504.3343      15.679071     -1488.6553     -1494.4932     -1504.3343      0             -1.1691699    
      3900   267.62247     -1503.7638      13.975539     -1489.7883     -1495.5002     -1503.7638      0             -1.1439416    
      4000   302.59636     -1504.3402      15.801914     -1488.5383     -1484.3876     -1504.3402      0              0.83126513   
      4100   318.91908     -1503.847       16.654305     -1487.1926     -1486.0206     -1503.847       0              0.23472302   
      4200   302.4874      -1503.2661      15.796224     -1487.4699     -1488.9518     -1503.2661      0             -0.29679241   
      4300   297.23505     -1504.0041      15.521941     -1488.4822     -1490.7567     -1504.0041      0             -0.45553028   
      4400   285.92315     -1504.1221      14.931221     -1489.1909     -1492.8681     -1504.1221      0             -0.73644241   
      4500   304.53587     -1504.6122      15.903198     -1488.709      -1490.819      -1504.6122      0             -0.42256961   
      4600   310.01929     -1504.4956      16.189548     -1488.3061     -1482.4569     -1504.4956      0              1.171428     
      4700   299.93396     -1504.6197      15.662881     -1488.9568     -1491.3086     -1504.6197      0             -0.47098158   
      4800   288.10233     -1504.5153      15.04502      -1489.4703     -1493.9381     -1504.5153      0             -0.89477878   
      4900   312.34327     -1505.1256      16.310909     -1488.8147     -1481.3335     -1505.1256      0              1.4982632    
      5000   299.92272     -1504.1041      15.662294     -1488.4418     -1491.4084     -1504.1041      0             -0.59412276   
      5100   298.58899     -1504.1838      15.592645     -1488.5911     -1481.1648     -1504.1838      0              1.4872816    
      5200   292.98343     -1504.3201      15.299916     -1489.0202     -1494.901      -1504.3201      0             -1.1777681    
      5300   289.74332     -1503.9514      15.130715     -1488.8207     -1486.6981     -1503.9514      0              0.42510479   
      5400   293.62388     -1503.0605      15.333361     -1487.7272     -1484.3726     -1503.0605      0              0.67182122   
      5500   323.85576     -1504.0358      16.912104     -1487.1237     -1483.8429     -1504.0358      0              0.65704462   
      5600   302.20697     -1504.4063      15.78158      -1488.6247     -1490.8535     -1504.4063      0             -0.44637526   
      5700   288.67073     -1505.1257      15.074703     -1490.051      -1486.5568     -1505.1257      0              0.69980115   
      5800   287.30022     -1505.3476      15.003133     -1490.3444     -1493.2503     -1505.3476      0             -0.58196791   
      5900   304.1349      -1505.4192      15.882259     -1489.5369     -1482.6848     -1505.4192      0              1.3722897    
      6000   286.81081     -1503.5147      14.977576     -1488.5371     -1492.6329     -1503.5147      0             -0.82027122   
      6100   302.92103     -1502.8322      15.818869     -1487.0133     -1486.3237     -1502.8322      0              0.13810984   
      6200   325.99536     -1503.2875      17.023836     -1486.2637     -1483.805      -1503.2875      0              0.49239991   
      6300   306.10235     -1503.7609      15.985001     -1487.7758     -1485.8977     -1503.7609      0              0.37613556   
      6400   300.87546     -1504.9988      15.712047     -1489.2868     -1497.8484     -1504.9988      0             -1.7146483    
      6500   290.88254     -1504.5962      15.190206     -1489.406      -1488.4038     -1504.5962      0              0.2007051    
      6600   303.62281     -1504.2715      15.855517     -1488.416      -1489.0722     -1504.2715      0             -0.13141883   
      6700   297.33322     -1503.2202      15.527067     -1487.6931     -1490.352      -1503.2202      0             -0.53250687   
      6800   301.48232     -1503.1394      15.743738     -1487.3956     -1483.9062     -1503.1394      0              0.69883168   
      6900   302.47591     -1503.4725      15.795624     -1487.6769     -1482.5366     -1503.4725      0              1.0294514    
      7000   294.15016     -1503.3545      15.360845     -1487.9937     -1497.6985     -1503.3545      0             -1.943597     
      7100   301.95871     -1503.551       15.768615     -1487.7824     -1485.2482     -1503.551       0              0.50752924   
      7200   305.87999     -1503.5563      15.973389     -1487.5829     -1490.6178     -1503.5563      0             -0.60782192   
      7300   304.50346     -1504.1853      15.901505     -1488.2838     -1472.8438     -1504.1853      0              3.0921905    
      7400   277.66195     -1504.0495      14.499812     -1489.5497     -1497.9692     -1504.0495      0             -1.6861947    
      7500   274.89075     -1502.9632      14.355097     -1488.6081     -1490.2838     -1502.9632      0             -0.33559432   
      7600   320.11224     -1502.452       16.716613     -1485.7354     -1482.3738     -1502.452       0              0.6732418    
      7700   325.84835     -1501.8401      17.016159     -1484.824      -1485.6273     -1501.8401      0             -0.16088629   
      7800   300.23366     -1502.3176      15.678532     -1486.6391     -1487.0113     -1502.3176      0             -0.074539643  
      7900   278.70709     -1503.0999      14.55439      -1488.5455     -1484.3417     -1503.0999      0              0.84190825   
      8000   294.08344     -1504.6922      15.35736      -1489.3348     -1487.6186     -1504.6922      0              0.34372146   
      8100   279.99433     -1503.6546      14.621612     -1489.0329     -1488.2855     -1503.6546      0              0.14969874   
      8200   317.50153     -1504.1321      16.580279     -1487.5519     -1484.2837     -1504.1321      0              0.65452967   
      8300   312.18608     -1503.584       16.3027       -1487.2813     -1493.5965     -1503.584       0             -1.2647439    
      8400   291.50748     -1503.0497      15.222841     -1487.8269     -1483.9405     -1503.0497      0              0.7783362    
      8500   297.33159     -1503.2374      15.526982     -1487.7104     -1493.8596     -1503.2374      0             -1.2315026    
      8600   307.16238     -1503.1527      16.040357     -1487.1124     -1483.6056     -1503.1527      0              0.70230065   
      8700   296.73699     -1502.9716      15.495932     -1487.4757     -1474.9253     -1502.9716      0              2.5134958    
      8800   285.52063     -1503.6285      14.910201     -1488.7183     -1491.2835     -1503.6285      0             -0.51373573   
      8900   274.63226     -1503.0143      14.341598     -1488.6727     -1490.5881     -1503.0143      0             -0.38359938   
      9000   312.24933     -1503.0196      16.306003     -1486.7136     -1481.1126     -1503.0196      0              1.1217394    
      9100   309.27445     -1501.9505      16.150651     -1485.7999     -1487.5887     -1501.9505      0             -0.35826589   
      9200   308.27924     -1502.666       16.098681     -1486.5673     -1485.5823     -1502.666       0              0.19727434   
      9300   300.7434      -1503.3759      15.705151     -1487.6707     -1490.6346     -1503.3759      0             -0.59358376   
      9400   286.35022     -1503.0108      14.953523     -1488.0573     -1486.3889     -1503.0108      0              0.33413477   
      9500   295.1868      -1502.9786      15.414979     -1487.5636     -1487.3901     -1502.9786      0              0.034760407  
      9600   306.99244     -1502.722       16.031483     -1486.6905     -1486.8344     -1502.722       0             -0.028818777  
      9700   301.87235     -1502.3214      15.764106     -1486.5573     -1478.6923     -1502.3214      0              1.5751527    
      9800   292.52058     -1502.3953      15.275746     -1487.1196     -1489.7726     -1502.3953      0             -0.53132711   
      9900   292.9213      -1502.4705      15.296672     -1487.1739     -1490.2492     -1502.4705      0             -0.61591087   
     10000   300.73912     -1502.3265      15.704927     -1486.6216     -1470.1166     -1502.3265      0              3.3054821    
Loop time of 2572.9 on 1 procs for 10000 steps with 405 atoms

Performance: 0.336 ns/day, 71.470 hours/ns, 3.887 timesteps/s, 1.574 katom-step/s
86.6% CPU use with 1 MPI tasks x 1 OpenMP threads

MPI task timing breakdown:
Section |  min time  |  avg time  |  max time  |%varavg| %total
---------------------------------------------------------------
Pair    | 2572.5     | 2572.5     | 2572.5     |   0.0 | 99.98
Neigh   | 0.089901   | 0.089901   | 0.089901   |   0.0 |  0.00
Comm    | 0.01372    | 0.01372    | 0.01372    |   0.0 |  0.00
Output  | 0.04061    | 0.04061    | 0.04061    |   0.0 |  0.00
Modify  | 0.21919    | 0.21919    | 0.21919    |   0.0 |  0.01
Other   |            | 0.04713    |            |       |  0.00

Nlocal:            405 ave         405 max         405 min
Histogram: 1 0 0 0 0 0 0 0 0 0
Nghost:              0 ave           0 max           0 min
Histogram: 1 0 0 0 0 0 0 0 0 0
Neighs:              0 ave           0 max           0 min
Histogram: 1 0 0 0 0 0 0 0 0 0
FullNghs:        10774 ave       10774 max       10774 min
Histogram: 1 0 0 0 0 0 0 0 0 0

Total # of neighbors = 10774
Ave neighs/atom = 26.602469
Neighbor list builds = 102
Dangerous builds = 0

print "All done!"
All done!
Total wall time: 0:42:53
