LAMMPS (2 Aug 2023 - Update 2)
OMP_NUM_THREADS environment is not set. Defaulting to 1 thread. (src/comm.cpp:98)
  using 1 OpenMP thread(s) per MPI task
Loaded 1 plugins from C:\Program Files\LAMMPS 64-bit 2Aug2023 with GUI\plugins
# Initialization

units		  metal
dimension 	      3
boundary	  f f f
atom_style	 atomic


# Atom Definition

read_data atom_definition.txt
Reading data file ...
  orthogonal box = (-0 -0 -0) to (200 200 200)
  1 by 1 by 1 MPI processor grid
  reading atoms ...
  405 atoms
  read_data CPU = 0.003 seconds


# Settings

pair_style tersoff
pair_coeff * * Au.tersoff.modc Au


timestep         0.001
velocity         all create 300 1551 mom yes rot yes dist gaussian
fix              2 all nvt temp 300 300 $(100.0*dt) drag 0.0 tchain 1
fix              2 all nvt temp 300 300 0.10000000000000000555 drag 0.0 tchain 1
fix              3 all recenter INIT INIT INIT

thermo_style custom step temp pe ke etotal enthalpy epair emol press
thermo 100


# Run a simulation

run              10000
Neighbor list info ...
  update: every = 1 steps, delay = 0 steps, check = yes
  max neighbors/atom: 2000, page size: 100000
  master list distance cutoff = 5.35
  ghost atom cutoff = 5.35
  binsize = 2.675, bins = 75 75 75
  1 neighbor lists, perpetual/occasional/extra = 1 0 0
  (1) pair tersoff, perpetual
      attributes: full, newton on
      pair build: full/bin/atomonly
      stencil: full/bin/3d
      bin: standard
Per MPI rank memory allocation (min/avg/max) = 4.989 | 4.989 | 4.989 Mbytes
   Step          Temp          PotEng         KinEng         TotEng        Enthalpy        E_pair         E_mol          Press     
         0   300           -1190.9844      15.66633      -1175.318      -2222.4996     -1190.9844      0             -209.72121    
       100   1077.3704     -1295.2006      56.261464     -1238.9391     -2050.4115     -1295.2006      0             -162.51526    
       200   208.53309     -1359.7733      10.889827     -1348.8835     -1786.2623     -1359.7733      0             -87.594759    
       300   166.1869      -1394.7697      8.6784627     -1386.0913     -1742.6498     -1394.7697      0             -71.408718    
       400   266.92382     -1438.1401      13.939055     -1424.2011     -1622.8184     -1438.1401      0             -39.777507    
       500   358.94109     -1501.7433      18.744298     -1482.999      -1529.7523     -1501.7433      0             -9.3633786    
       600   484.13211     -1595.7125      25.28191      -1570.4306     -1475.0226     -1595.7125      0              19.107545    
       700   349.16798     -1689.6815      18.233935     -1671.4476     -1489.1682     -1689.6815      0              36.505469    
       800   287.5468      -1781.3965      15.01601      -1766.3805     -1532.7284     -1781.3965      0              46.793984    
       900   242.67227     -1846.5647      12.672613     -1833.8921     -1558.2331     -1846.5647      0              55.206804    
      1000   264.60386     -1913.6273      13.817904     -1899.8094     -1557.8065     -1913.6273      0              68.493629    
      1100   276.19041     -1979.5527      14.422966     -1965.1298     -1589.2196     -1979.5527      0              75.284301    
      1200   318.33741     -2056.7211      16.623929     -2040.0971     -1650.262      -2056.7211      0              78.073096    
      1300   297.37216     -2131.5698      15.529101     -2116.0407     -1716.0776     -2131.5698      0              80.101443    
      1400   284.90627     -2203.2108      14.878118     -2188.3327     -1788.6154     -2203.2108      0              80.052199    
      1500   236.67132     -2261.7716      12.359236     -2249.4123     -1840.5155     -2261.7716      0              81.890605    
      1600   198.95634     -2306.582       10.389718     -2296.1923     -1994.9869     -2306.582       0              60.323019    
      1700   174.16707     -2338.9259      9.0951956     -2329.8307     -2098.185      -2338.9259      0              46.392158    
      1800   251.24095     -2374.576       13.120079     -2361.4559     -2116.5679     -2374.576       0              49.044234    
      1900   249.15423     -2406.1299      13.011108     -2393.1188     -2181.307      -2406.1299      0              42.419985    
      2000   284.04343     -2437.6414      14.83306      -2422.8083     -2216.5698     -2437.6414      0              41.303823    
      2100   246.12806     -2462.4911      12.853078     -2449.6381     -2289.2215     -2462.4911      0              32.126957    
      2200   229.44836     -2481.8992      11.982045     -2469.9171     -2358.4282     -2481.8992      0              22.328116    
      2300   234.63814     -2495.4419      12.253062     -2483.1889     -2438.7187     -2495.4419      0              8.9061437    
      2400   274.06354     -2505.5746      14.311899     -2491.2627     -2437.315      -2505.5746      0              10.804225    
      2500   307.40806     -2514.1315      16.053186     -2498.0783     -2458.1326     -2514.1315      0              8.0000185    
      2600   297.32194     -2520.9672      15.526478     -2505.4407     -2486.5327     -2520.9672      0              3.7867596    
      2700   259.26465     -2524.9162      13.539085     -2511.3771     -2500.4381     -2524.9162      0              2.1907772    
      2800   261.36536     -2526.8524      13.648786     -2513.2036     -2532.3039     -2526.8524      0             -3.8252624    
      2900   320.14496     -2528.2548      16.718321     -2511.5364     -2474.9215     -2528.2548      0              7.332952     
      3000   352.5301      -2529.6206      18.409509     -2511.2111     -2493.9951     -2529.6206      0              3.4478822    
      3100   320.09464     -2532.8097      16.715694     -2516.094      -2508.9992     -2532.8097      0              1.4208901    
      3200   262.07018     -2535.6947      13.685593     -2522.0091     -2544.2918     -2535.6947      0             -4.4625861    
      3300   244.83373     -2536.9727      12.785486     -2524.1872     -2526.0481     -2536.9727      0             -0.3726868    
      3400   262.18847     -2535.5938      13.69177      -2521.902      -2533.8611     -2535.5938      0             -2.3950702    
      3500   353.84987     -2534.2832      18.478429     -2515.8047     -2511.987      -2534.2832      0              0.76459334   
      3600   356.42267     -2532.6432      18.612783     -2514.0304     -2603.4356     -2532.6432      0             -17.90536     
      3700   312.88457     -2534.5844      16.339176     -2518.2452     -2543.0589     -2534.5844      0             -4.9694881    
      3800   248.3468      -2535.1684      12.968943     -2522.1994     -2581.5538     -2535.1684      0             -11.887028    
      3900   268.22265     -2536.1989      14.006881     -2522.1921     -2523.5913     -2536.1989      0             -0.28023109   
      4000   320.89019     -2536.8159      16.757238     -2520.0587     -2552.035      -2536.8159      0             -6.403972     
      4100   344.84262     -2537.9073      18.008061     -2519.8993     -2544.4288     -2537.9073      0             -4.9125794    
      4200   297.71269     -2538.8862      15.546884     -2523.3393     -2530.9272     -2538.8862      0             -1.5196573    
      4300   269.61168     -2540.3163      14.079418     -2526.2369     -2512.0205     -2540.3163      0              2.8471377    
      4400   302.67359     -2542.3601      15.805947     -2526.5541     -2510.2041     -2542.3601      0              3.2744526    
      4500   296.68904     -2541.179       15.493427     -2525.6856     -2549.6583     -2541.179       0             -4.801061     
      4600   315.93139     -2541.3124      16.498284     -2524.8141     -2455.427      -2541.3124      0              13.896294    
      4700   321.93504     -2542.903       16.811801     -2526.0912     -2540.7249     -2542.903       0             -2.9307108    
      4800   292.45079     -2544.8056      15.272102     -2529.5335     -2575.3943     -2544.8056      0             -9.1846312    
      4900   279.73988     -2546.7205      14.608324     -2532.1122     -2549.9604     -2546.7205      0             -3.5745109    
      5000   277.94256     -2546.6083      14.514466     -2532.0938     -2526.9447     -2546.6083      0              1.0312311    
      5100   300.65517     -2545.4697      15.700543     -2529.7691     -2532.2814     -2545.4697      0             -0.50313614   
      5200   319.89859     -2544.1207      16.705456     -2527.4152     -2489.2413     -2544.1207      0              7.6451735    
      5300   324.98028     -2544.7362      16.970827     -2527.7654     -2545.2019     -2544.7362      0             -3.492039     
      5400   294.45311     -2545.7974      15.376665     -2530.4207     -2535.3703     -2545.7974      0             -0.99125547   
      5500   289.45072     -2547.5484      15.115434     -2532.433      -2572.5442     -2547.5484      0             -8.0331604    
      5600   296.84036     -2548.6551      15.50133      -2533.1538     -2479.7595     -2548.6551      0              10.693386    
      5700   305.76828     -2549.1826      15.967555     -2533.215      -2511.7634     -2549.1826      0              4.296154     
      5800   313.80239     -2549.8825      16.387106     -2533.4954     -2495.7222     -2549.8825      0              7.5649178    
      5900   287.03273     -2549.3397      14.989165     -2534.3505     -2553.4813     -2549.3397      0             -3.8313559    
      6000   298.4903      -2549.6608      15.587491     -2534.0733     -2576.9274     -2549.6608      0             -8.5824767    
      6100   300.0459      -2548.6888      15.668726     -2533.02       -2536.553      -2548.6888      0             -0.70754992   
      6200   331.54103     -2549.4808      17.313437     -2532.1674     -2529.9083     -2549.4808      0              0.45243737   
      6300   319.38379     -2550.3705      16.678572     -2533.6919     -2559.85       -2550.3705      0             -5.238727     
      6400   276.38225     -2550.6537      14.432985     -2536.2207     -2516.5798     -2550.6537      0              3.9335205    
      6500   272.63719     -2551.5616      14.237414     -2537.3242     -2513.2638     -2551.5616      0              4.8186387    
      6600   294.20795     -2552.0387      15.363862     -2536.6749     -2490.9172     -2552.0387      0              9.163976     
      6700   317.36373     -2552.1136      16.573083     -2535.5405     -2544.0725     -2552.1136      0             -1.7087146    
      6800   315.6918      -2552.0638      16.485773     -2535.578      -2556.5679     -2552.0638      0             -4.2036905    
      6900   311.84263     -2552.8769      16.284765     -2536.5921     -2532.9678     -2552.8769      0              0.72584786   
      7000   271.93271     -2551.7276      14.200625     -2537.527      -2556.7729     -2551.7276      0             -3.8544269    
      7100   292.39676     -2552.1224      15.26928      -2536.8531     -2556.9884     -2552.1224      0             -4.0325371    
      7200   286.32704     -2550.6796      14.952312     -2535.7273     -2494.9738     -2550.6796      0              8.161795     
      7300   306.11426     -2550.4557      15.985623     -2534.4701     -2566.5595     -2550.4557      0             -6.4266171    
      7400   321.73131     -2551.2376      16.801163     -2534.4364     -2547.9666     -2551.2376      0             -2.7097213    
      7500   312.56676     -2552.205       16.32258      -2535.8824     -2505.8133     -2552.205       0              6.0220052    
      7600   284.56103     -2552.2257      14.860089     -2537.3656     -2558.9295     -2552.2257      0             -4.3186326    
      7700   284.10065     -2552.2395      14.836048     -2537.4035     -2516.4955     -2552.2395      0              4.1872761    
      7800   310.85564     -2552.5224      16.233223     -2536.2892     -2513.2545     -2552.5224      0              4.613204     
      7900   298.57041     -2550.8245      15.591675     -2535.2328     -2556.3522     -2550.8245      0             -4.2296117    
      8000   315.51993     -2551.0226      16.476797     -2534.5458     -2511.2482     -2551.0226      0              4.665845     
      8100   301.42675     -2550.6998      15.740836     -2534.959      -2501.8522     -2550.6998      0              6.6303717    
      8200   310.45173     -2552.3914      16.21213      -2536.1793     -2538.3986     -2552.3914      0             -0.44445729   
      8300   279.85678     -2551.8339      14.614428     -2537.2195     -2471.5276     -2551.8339      0              13.156241    
      8400   274.81148     -2551.2957      14.350957     -2536.9447     -2562.1089     -2551.2957      0             -5.0396822    
      8500   300.71874     -2551.0053      15.703863     -2535.3015     -2506.1767     -2551.0053      0              5.832887     
      8600   324.69204     -2551.0938      16.955775     -2534.138      -2535.6745     -2551.0938      0             -0.30770696   
      8700   305.31857     -2550.7034      15.944071     -2534.7593     -2554.8682     -2550.7034      0             -4.0272484    
      8800   283.61324     -2550.6398      14.810595     -2535.8292     -2606.9602     -2550.6398      0             -14.245547    
      8900   280.90946     -2550.8168      14.669401     -2536.1474     -2510.0946     -2550.8168      0              5.2176335    
      9000   292.7002      -2551.171       15.285126     -2535.8858     -2510.7091     -2551.171       0              5.0421925    
      9100   305.17917     -2551.2832      15.936791     -2535.3465     -2497.0817     -2551.2832      0              7.6633693    
      9200   302.30281     -2551.1881      15.786585     -2535.4015     -2543.3349     -2551.1881      0             -1.5888527    
      9300   303.4833      -2551.7749      15.848231     -2535.9266     -2568.5226     -2551.7749      0             -6.5280565    
      9400   292.58899     -2552.009       15.279319     -2536.7297     -2508.416      -2552.009       0              5.6704479    
      9500   302.15405     -2554.4327      15.778816     -2538.6538     -2515.1904     -2554.4327      0              4.6990667    
      9600   298.2786      -2556.7334      15.576436     -2541.157      -2564.7192     -2556.7334      0             -4.7188574    
      9700   279.26951     -2557.591       14.583761     -2543.0072     -2554.3413     -2557.591       0             -2.2699011    
      9800   290.52541     -2558.0729      15.171556     -2542.9013     -2508.6155     -2558.0729      0              6.866486     
      9900   311.77796     -2557.8388      16.281388     -2541.5575     -2533.5926     -2557.8388      0              1.595137     
     10000   321.9539      -2557.1785      16.812786     -2540.3657     -2551.3403     -2557.1785      0             -2.1979014    
Loop time of 50.8752 on 1 procs for 10000 steps with 405 atoms

Performance: 16.983 ns/day, 1.413 hours/ns, 196.560 timesteps/s, 79.607 katom-step/s
99.9% CPU use with 1 MPI tasks x 1 OpenMP threads

MPI task timing breakdown:
Section |  min time  |  avg time  |  max time  |%varavg| %total
---------------------------------------------------------------
Pair    | 50.636     | 50.636     | 50.636     |   0.0 | 99.53
Neigh   | 0.032694   | 0.032694   | 0.032694   |   0.0 |  0.06
Comm    | 0.007315   | 0.007315   | 0.007315   |   0.0 |  0.01
Output  | 0.03318    | 0.03318    | 0.03318    |   0.0 |  0.07
Modify  | 0.14519    | 0.14519    | 0.14519    |   0.0 |  0.29
Other   |            | 0.0205     |            |       |  0.04

Nlocal:            405 ave         405 max         405 min
Histogram: 1 0 0 0 0 0 0 0 0 0
Nghost:              0 ave           0 max           0 min
Histogram: 1 0 0 0 0 0 0 0 0 0
Neighs:              0 ave           0 max           0 min
Histogram: 1 0 0 0 0 0 0 0 0 0
FullNghs:         7756 ave        7756 max        7756 min
Histogram: 1 0 0 0 0 0 0 0 0 0

Total # of neighbors = 7756
Ave neighs/atom = 19.150617
Neighbor list builds = 38
Dangerous builds = 0

print "All done!"
All done!
Total wall time: 0:00:50
