LAMMPS (2 Aug 2023 - Update 2)
OMP_NUM_THREADS environment is not set. Defaulting to 1 thread. (src/comm.cpp:98)
  using 1 OpenMP thread(s) per MPI task
Loaded 1 plugins from C:\Program Files\LAMMPS 64-bit 2Aug2023 with GUI\plugins
# Initialization

units		  metal
dimension 	      3
boundary	  f f f
atom_style	 atomic


# Atom Definition

read_data atom_definition.txt
Reading data file ...
  orthogonal box = (-0 -0 -0) to (200 200 200)
  1 by 1 by 1 MPI processor grid
  reading atoms ...
  201 atoms
  read_data CPU = 0.002 seconds


# Settings

pair_style mliap model nn Si.nn.mliap.model descriptor so3 Si.nn.mliap.descriptor
SO3 keyword rcutfac 5.0 
SO3 keyword nmax 3 
SO3 keyword lmax 4 
SO3 keyword alpha 2.0 
SO3 keyword nelems 1 
SO3 keyword elems Si 
SO3 keyword radelems 0.5 
SO3 keyword welems 14 
pair_coeff * * Si Si


timestep         0.001
velocity         all create 300 1551 mom yes rot yes dist gaussian
fix              2 all nvt temp 300 300 $(100.0*dt) drag 0.0 tchain 1
fix              2 all nvt temp 300 300 0.10000000000000000555 drag 0.0 tchain 1
fix              3 all recenter INIT INIT INIT

thermo_style custom step temp pe ke etotal enthalpy epair emol press
thermo 100


# Run a simulation

run              10000
Neighbor list info ...
  update: every = 1 steps, delay = 0 steps, check = yes
  max neighbors/atom: 2000, page size: 100000
  master list distance cutoff = 7
  ghost atom cutoff = 7
  binsize = 3.5, bins = 58 58 58
  1 neighbor lists, perpetual/occasional/extra = 1 0 0
  (1) pair mliap, perpetual
      attributes: full, newton on
      pair build: full/bin/atomonly
      stencil: full/bin/3d
      bin: standard
Per MPI rank memory allocation (min/avg/max) = 332.4 | 332.4 | 332.4 Mbytes
   Step          Temp          PotEng         KinEng         TotEng        Enthalpy        E_pair         E_mol          Press     
         0   300           -746.83019      7.7556087     -739.07458     -828.88486     -746.83019      0             -17.98649     
       100   324.98866     -748.96134      8.4016162     -740.55973     -699.2589      -748.96134      0              8.2714012    
       200   236.62188     -750.60635      6.1171557     -744.48919     -733.21611     -750.60635      0              2.2576839    
       300   245.855       -752.58664      6.3558507     -746.23079     -732.73773     -752.58664      0              2.7022821    
       400   241.81648     -751.9877       6.2514466     -745.73625     -753.13071     -751.9877       0             -1.4809036    
       500   306.59858     -750.65112      7.9261954     -742.72492     -745.06984     -750.65112      0             -0.46962024   
       600   375.64914     -748.64713      9.7112925     -738.93584     -732.46803     -748.64713      0              1.2953223    
       700   333.13574     -747.73295      8.6122348     -739.12071     -744.5137      -747.73295      0             -1.0800653    
       800   256.62767     -747.47018      6.6343459     -740.83583     -737.7721      -747.47018      0              0.61358026   
       900   265.7544      -747.97796      6.8702903     -741.10767     -744.06087     -747.97796      0             -0.59144356   
      1000   298.51921     -747.86316      7.7173274     -740.14583     -736.59652     -747.86316      0              0.71082683   
      1100   318.0172      -747.3059       8.2213899     -739.08451     -741.62177     -747.3059       0             -0.50814139   
      1200   307.71831     -746.59243      7.9551428     -738.63729     -735.45074     -746.59243      0              0.63817591   
      1300   280.48845     -745.89071      7.2511955     -738.63952     -740.20837     -745.89071      0             -0.31419697   
      1400   306.97215     -746.32414      7.9358529     -738.38828     -734.10768     -746.32414      0              0.85728449   
      1500   299.30579     -746.26125      7.7376621     -738.52359     -742.50982     -746.26125      0             -0.79833094   
      1600   282.93676     -745.97967      7.3144894     -738.66518     -744.30977     -745.97967      0             -1.1304552    
      1700   300.0579      -746.04252      7.7571055     -738.28542     -735.04172     -746.04252      0              0.64962246   
      1800   324.31689     -746.10264      8.3842497     -737.71839     -740.49572     -746.10264      0             -0.55622116   
      1900   317.74845     -746.19775      8.2144421     -737.9833      -735.53729     -746.19775      0              0.48986939   
      2000   278.3993      -746.73051      7.1971867     -739.53332     -738.90222     -746.73051      0              0.12639227   
      2100   278.16162     -747.30816      7.1910423     -740.11712     -745.34821     -747.30816      0             -1.0476425    
      2200   296.12673     -747.30367      7.6554769     -739.64819     -736.61111     -747.30367      0              0.60824137   
      2300   312.2606      -747.11418      8.0725701     -739.04161     -741.15293     -747.11418      0             -0.42283791   
      2400   301.00789     -746.77108      7.7816646     -738.98941     -729.10342     -746.77108      0              1.9798877    
      2500   266.04736     -746.20143      6.8778641     -739.32357     -744.55108     -746.20143      0             -1.0469242    
      2600   301.58372     -746.33496      7.7965511     -738.53841     -734.96002     -746.33496      0              0.71664995   
      2700   298.22234     -745.33071      7.7096527     -737.62105     -738.99311     -745.33071      0             -0.27478367   
      2800   309.78659     -745.0907       8.008612      -737.08209     -734.6584      -745.0907       0              0.48539775   
      2900   309.14835     -745.35374      7.992112      -737.36163     -734.70429     -745.35374      0              0.532191     
      3000   283.98573     -745.36094      7.3416072     -738.01933     -739.89363     -745.36094      0             -0.37536944   
      3100   290.56041     -745.32332      7.5115761     -737.81175     -738.59492     -745.32332      0             -0.15684808   
      3200   314.21756     -745.14593      8.1231616     -737.02277     -736.57773     -745.14593      0              0.089129217  
      3300   312.44878     -745.08957      8.077435      -737.01214     -737.15343     -745.08957      0             -0.028297089  
      3400   286.15776     -744.86878      7.3977587     -737.47102     -740.22593     -744.86878      0             -0.55173086   
      3500   287.19606     -744.93165      7.4246008     -737.50705     -732.74996     -744.93165      0              0.95271111   
      3600   304.23073     -745.23418      7.8649815     -737.3692      -735.80991     -745.23418      0              0.31228207   
      3700   275.12193     -744.8191       7.11246       -737.70664     -733.56462     -744.8191       0              0.82953035   
      3800   305.1176      -745.53448      7.887909      -737.64657     -741.35371     -745.53448      0             -0.74243598   
      3900   315.65487     -745.93595      8.1603189     -737.77563     -735.8863      -745.93595      0              0.37837886   
      4000   286.68973     -745.526        7.4115112     -738.11449     -743.1865      -745.526        0             -1.0157821    
      4100   294.13837     -745.60036      7.6040737     -737.99629     -732.05011     -745.60036      0              1.1908546    
      4200   299.9822      -745.36883      7.7551485     -737.61368     -738.64159     -745.36883      0             -0.20586093   
      4300   293.25989     -745.00745      7.5813632     -737.42608     -735.53359     -745.00745      0              0.37901275   
      4400   306.79968     -745.62101      7.9313942     -737.68961     -736.2146      -745.62101      0              0.29540337   
      4500   291.50541     -745.40684      7.5360063     -737.87083     -743.27162     -745.40684      0             -1.0816273    
      4600   302.71082     -745.30714      7.8256888     -737.48145     -736.68636     -745.30714      0              0.15923511   
      4700   299.82989     -744.93086      7.751211      -737.17965     -735.57241     -744.93086      0              0.32188533   
      4800   309.49682     -745.26256      8.0011209     -737.26144     -737.7256      -745.26256      0             -0.092957682  
      4900   301.62284     -745.50047      7.7975625     -737.70291     -737.3756      -745.50047      0              0.065552271  
      5000   284.41805     -745.28702      7.3527837     -737.93423     -737.27714     -745.28702      0              0.13159844   
      5100   309.53336     -745.73838      8.0020654     -737.73631     -732.65754     -745.73838      0              1.0171357    
      5200   285.05221     -744.87673      7.369178      -737.50755     -742.81027     -744.87673      0             -1.0619867    
      5300   338.95548     -745.59025      8.7626869     -736.82756     -731.98925     -745.59025      0              0.96897909   
      5400   320.44907     -745.44002      8.2842586     -737.15576     -746.68782     -745.44002      0             -1.9090054    
      5500   288.03385     -745.24209      7.4462596     -737.79583     -735.46066     -745.24209      0              0.46766855   
      5600   293.84282     -745.55232      7.596433      -737.95589     -735.30012     -745.55232      0              0.53187679   
      5700   315.81189     -746.28027      8.1643783     -738.11589     -742.07269     -746.28027      0             -0.79243511   
      5800   308.47701     -746.50036      7.9747566     -738.52561     -740.29354     -746.50036      0             -0.35406697   
      5900   307.75713     -746.91658      7.9561463     -738.96044     -737.92861     -746.91658      0              0.20664685   
      6000   281.2381      -746.64943      7.2705754     -739.37885     -741.51156     -746.64943      0             -0.42712133   
      6100   296.22664     -746.62451      7.6580596     -738.96645     -737.2815      -746.62451      0              0.33744791   
      6200   318.29008     -746.44503      8.2284443     -738.21658     -736.9388      -746.44503      0              0.25590439   
      6300   302.06276     -745.59046      7.8089351     -737.78152     -743.72967     -745.59046      0             -1.1912481    
      6400   320.62965     -745.65087      8.2889271     -737.36194     -739.64938     -745.65087      0             -0.45811028   
      6500   293.83375     -745.23876      7.5961985     -737.64257     -733.84429     -745.23876      0              0.7606883    
      6600   279.68206     -745.57276      7.2303487     -738.34241     -735.97948     -745.57276      0              0.47322946   
      6700   292.09473     -746.16883      7.5512415     -738.61759     -735.43173     -746.16883      0              0.63803866   
      6800   287.62193     -745.70167      7.4356106     -738.26606     -747.36081     -745.70167      0             -1.8214233    
      6900   323.56171     -745.78791      8.3647266     -737.42318     -734.15671     -745.78791      0              0.65418361   
      7000   316.3599      -745.40286      8.1785453     -737.22432     -741.08481     -745.40286      0             -0.7731499    
      7100   319.88212     -746.08212      8.2696018     -737.81251     -731.2884      -746.08212      0              1.3065988    
      7200   275.11603     -745.72831      7.1123075     -738.61601     -743.81688     -745.72831      0             -1.0415896    
      7300   279.397       -745.6401       7.2229794     -738.41712     -740.69097     -745.6401       0             -0.4553886    
      7400   321.79138     -745.82479      8.3189602     -737.50583     -732.01903     -745.82479      0              1.0988521    
      7500   298.34589     -745.12619      7.7128465     -737.41334     -734.75935     -745.12619      0              0.53152066   
      7600   290.08527     -745.58649      7.4992929     -738.0872      -739.53518     -745.58649      0             -0.28998963   
      7700   296.16645     -746.20648      7.6565037     -738.54998     -736.14958     -746.20648      0              0.48073219   
      7800   294.49426     -746.15759      7.6132741     -738.54432     -735.69969     -746.15759      0              0.56970072   
      7900   302.37103     -745.84496      7.8169046     -738.02806     -738.0555      -745.84496      0             -0.0054957625 
      8000   334.10626     -746.39217      8.6373248     -737.75484     -737.94688     -746.39217      0             -0.03845861   
      8100   277.53451     -745.50443      7.1748303     -738.3296      -738.79923     -745.50443      0             -0.094055083  
      8200   273.66082     -745.31278      7.0746875     -738.2381      -737.21906     -745.31278      0              0.20408538   
      8300   309.61095     -745.56174      8.0040713     -737.55767     -736.63948     -745.56174      0              0.18388818   
      8400   315.25244     -745.67333      8.1499151     -737.52342     -736.71723     -745.67333      0              0.16145659   
      8500   291.95366     -745.59687      7.5475946     -738.04928     -735.44397     -745.59687      0              0.52177105   
      8600   266.90951     -745.35572      6.9001523     -738.45557     -738.25314     -745.35572      0              0.040540821  
      8700   297.51403     -745.62909      7.6913413     -737.93775     -736.16804     -745.62909      0              0.35442393   
      8800   316.26422     -745.59311      8.1760718     -737.41704     -734.32474     -745.59311      0              0.61930108   
      8900   304.67537     -745.61758      7.8764764     -737.74111     -740.18601     -745.61758      0             -0.48964645   
      9000   284.79189     -745.55917      7.3624482     -738.19672     -741.57569     -745.55917      0             -0.67671373   
      9100   304.94077     -745.85145      7.8833377     -737.96811     -738.17014     -745.85145      0             -0.040460218  
      9200   299.21508     -745.46545      7.735317      -737.73013     -734.78105     -745.46545      0              0.59061979   
      9300   320.61144     -746.05188      8.2884564     -737.76342     -736.47775     -746.05188      0              0.25748453   
      9400   283.41244     -745.62942      7.3267867     -738.30263     -741.59111     -745.62942      0             -0.65859003   
      9500   298.63929     -745.97438      7.7204315     -738.25395     -737.71898     -745.97438      0              0.10714037   
      9600   289.73424     -745.13529      7.4902179     -737.64508     -738.76018     -745.13529      0             -0.22332397   
      9700   317.96615     -744.75319      8.2200703     -736.53312     -737.63303     -744.75319      0             -0.22027986   
      9800   348.23503     -745.2912       9.0025821     -736.28862     -737.54786     -745.2912       0             -0.25219161   
      9900   297.11393     -745.41824      7.680998      -737.73724     -738.7055      -745.41824      0             -0.19391687   
     10000   259.07482     -745.41039      6.6976096     -738.71278     -737.59403     -745.41039      0              0.22405443   
Loop time of 1276.32 on 1 procs for 10000 steps with 201 atoms

Performance: 0.677 ns/day, 35.453 hours/ns, 7.835 timesteps/s, 1.575 katom-step/s
86.7% CPU use with 1 MPI tasks x 1 OpenMP threads

MPI task timing breakdown:
Section |  min time  |  avg time  |  max time  |%varavg| %total
---------------------------------------------------------------
Pair    | 1276       | 1276       | 1276       |   0.0 | 99.98
Neigh   | 0.043653   | 0.043653   | 0.043653   |   0.0 |  0.00
Comm    | 0.012937   | 0.012937   | 0.012937   |   0.0 |  0.00
Output  | 0.043944   | 0.043944   | 0.043944   |   0.0 |  0.00
Modify  | 0.14585    | 0.14585    | 0.14585    |   0.0 |  0.01
Other   |            | 0.03696    |            |       |  0.00

Nlocal:            201 ave         201 max         201 min
Histogram: 1 0 0 0 0 0 0 0 0 0
Nghost:              0 ave           0 max           0 min
Histogram: 1 0 0 0 0 0 0 0 0 0
Neighs:              0 ave           0 max           0 min
Histogram: 1 0 0 0 0 0 0 0 0 0
FullNghs:         4992 ave        4992 max        4992 min
Histogram: 1 0 0 0 0 0 0 0 0 0

Total # of neighbors = 4992
Ave neighs/atom = 24.835821
Neighbor list builds = 95
Dangerous builds = 0

print "All done!"
All done!
Total wall time: 0:21:16
