LAMMPS (2 Aug 2023 - Update 2)
OMP_NUM_THREADS environment is not set. Defaulting to 1 thread. (src/comm.cpp:98)
  using 1 OpenMP thread(s) per MPI task
Loaded 1 plugins from C:\Program Files\LAMMPS 64-bit 2Aug2023 with GUI\plugins
# Initialization

units		  metal
dimension 	      3
boundary	  f f f
atom_style	 atomic


# Atom Definition

read_data atom_definition.txt
Reading data file ...
  orthogonal box = (-0 -0 -0) to (200 200 200)
  1 by 1 by 1 MPI processor grid
  reading atoms ...
  405 atoms
  read_data CPU = 0.003 seconds


# Settings

pair_style meam/c
pair_coeff	* * library.meam Au NULL Au
Reading MEAM library file library.meam with DATE: 2012-06-29


timestep         0.001
velocity         all create 300 1551 mom yes rot yes dist gaussian
fix              2 all nvt temp 300 300 $(100.0*dt) drag 0.0 tchain 1
fix              2 all nvt temp 300 300 0.10000000000000000555 drag 0.0 tchain 1
fix              3 all recenter INIT INIT INIT

thermo_style custom step temp pe ke etotal enthalpy epair emol press
thermo 100


# Run a simulation

run              10000
Neighbor list info ...
  update: every = 1 steps, delay = 0 steps, check = yes
  max neighbors/atom: 2000, page size: 100000
  master list distance cutoff = 6
  ghost atom cutoff = 6
  binsize = 3, bins = 67 67 67
  2 neighbor lists, perpetual/occasional/extra = 2 0 0
  (1) pair meam/c, perpetual
      attributes: full, newton on
      pair build: full/bin/atomonly
      stencil: full/bin/3d
      bin: standard
  (2) pair meam/c, perpetual, half/full from (1)
      attributes: half, newton on
      pair build: halffull/newton
      stencil: none
      bin: none
Per MPI rank memory allocation (min/avg/max) = 10.15 | 10.15 | 10.15 Mbytes
   Step          Temp          PotEng         KinEng         TotEng        Enthalpy        E_pair         E_mol          Press     
         0   300           -1475.6167      15.66633      -1459.9504     -1714.3104     -1475.6167      0             -50.941215    
       100   213.72634     -1470.4168      11.161024     -1459.2558     -1553.4677     -1470.4168      0             -18.868025    
       200   372.37298     -1474.1842      19.445726     -1454.7384     -1370.5737     -1474.1842      0              16.85585     
       300   308.49648     -1471.2072      16.110025     -1455.0972     -1320.6928     -1471.2072      0              26.91744     
       400   282.89714     -1470.6293      14.773199     -1455.8561     -1292.2039     -1470.6293      0              32.774962    
       500   329.25804     -1473.0764      17.194217     -1455.8822     -1377.6829     -1473.0764      0              15.661126    
       600   286.88686     -1473.3395      14.981547     -1458.3579     -1486.6263     -1473.3395      0             -5.6613564    
       700   264.37163     -1474.0778      13.805777     -1460.272      -1588.3584     -1474.0778      0             -25.652135    
       800   270.46433     -1473.1572      14.123944     -1459.0332     -1597.9105     -1473.1572      0             -27.81323     
       900   348.98359     -1473.0047      18.224306     -1454.7804     -1489.3311     -1473.0047      0             -6.9195363    
      1000   325.23657     -1471.4274      16.984211     -1454.4431     -1368.9033     -1471.4274      0              17.131238    
      1100   291.17307     -1472.586       15.205378     -1457.3806     -1346.3456     -1472.586       0              22.237202    
      1200   270.25374     -1472.9909      14.112947     -1458.878      -1392.3954     -1472.9909      0              13.314612    
      1300   304.41302     -1473.9282      15.896782     -1458.0314     -1434.2832     -1473.9282      0              4.7561189    
      1400   298.24233     -1472.9428      15.574542     -1457.3683     -1501.2222     -1472.9428      0             -8.782704     
      1500   292.54948     -1472.4414      15.277255     -1457.1641     -1566.0178     -1472.4414      0             -21.80036     
      1600   294.60717     -1472.1471      15.38471      -1456.7624     -1537.9591     -1472.1471      0             -16.261446    
      1700   333.9484      -1473.7666      17.439153     -1456.3275     -1462.1768     -1473.7666      0             -1.1714593    
      1800   304.38102     -1473.5197      15.895111     -1457.6245     -1383.7893     -1473.5197      0              14.787144    
      1900   289.2124      -1473.9904      15.102989     -1458.8874     -1384.4035     -1473.9904      0              14.917045    
      2000   293.18404     -1474.4152      15.310393     -1459.1048     -1411.2055     -1474.4152      0              9.5929024    
      2100   307.50982     -1474.2518      16.058501     -1458.1933     -1451.7475     -1474.2518      0              1.290922     
      2200   297.64968     -1473.2516      15.543593     -1457.708      -1509.5993     -1473.2516      0             -10.392372    
      2300   296.72782     -1472.717       15.495453     -1457.2216     -1534.1971     -1472.717       0             -15.416059    
      2400   316.05304     -1472.9441      16.504637     -1456.4395     -1514.9343     -1472.9441      0             -11.714883    
      2500   293.12773     -1472.2914      15.307452     -1456.9839     -1446.7149     -1472.2914      0              2.0566017    
      2600   311.29987     -1473.7714      16.256421     -1457.515      -1394.4125     -1473.7714      0              12.637672    
      2700   286.89391     -1473.7407      14.981915     -1458.7588     -1410.624      -1473.7407      0              9.6400515    
      2800   286.39307     -1474.006       14.955761     -1459.0503     -1436.355      -1474.006       0              4.5452271    
      2900   301.81969     -1473.7483      15.761356     -1457.9869     -1457.8145     -1473.7483      0              0.034525105  
      3000   305.46892     -1472.9774      15.951923     -1457.0255     -1489.078      -1472.9774      0             -6.4192187    
      3100   298.8591      -1472.4452      15.60675      -1456.8385     -1515.7591     -1472.4452      0             -11.800157    
      3200   308.38846     -1472.9433      16.104384     -1456.839      -1495.127      -1472.9433      0             -7.6680336    
      3300   299.2237      -1472.9552      15.62579      -1457.3294     -1447.1367     -1472.9552      0              2.0413054    
      3400   301.42937     -1473.6657      15.740973     -1457.9247     -1403.3256     -1473.6657      0              10.934684    
      3500   299.23868     -1473.9131      15.626572     -1458.2865     -1425.7631     -1473.9131      0              6.513526     
      3600   296.22851     -1473.7785      15.469378     -1458.3091     -1449.921      -1473.7785      0              1.6799031    
      3700   305.75728     -1473.5868      15.966981     -1457.6198     -1466.2139     -1473.5868      0             -1.7211629    
      3800   310.87139     -1473.2102      16.234045     -1456.9761     -1483.0995     -1473.2102      0             -5.2317793    
      3900   303.66318     -1473.0084      15.857625     -1457.1508     -1488.8902     -1473.0084      0             -6.3565241    
      4000   304.21027     -1473.2421      15.886194     -1457.3559     -1464.1339     -1473.2421      0             -1.3574471    
      4100   300.14395     -1473.4348      15.673847     -1457.7609     -1442.5942     -1473.4348      0              3.0374729    
      4200   301.76475     -1474.1719      15.758487     -1458.4134     -1440.7234     -1474.1719      0              3.5428254    
      4300   296.44584     -1474.0918      15.480727     -1458.6111     -1441.7002     -1474.0918      0              3.3867823    
      4400   289.42063     -1472.9182      15.113863     -1457.8043     -1455.5843     -1472.9182      0              0.44461878   
      4500   311.18959     -1472.7563      16.250662     -1456.5057     -1458.9956     -1472.7563      0             -0.4986554    
      4600   311.50496     -1472.9164      16.267131     -1456.6493     -1466.8197     -1472.9164      0             -2.0368593    
      4700   292.52459     -1473.3489      15.275956     -1458.073      -1470.6366     -1473.3489      0             -2.5161552    
      4800   280.14957     -1473.5074      14.629718     -1458.8777     -1468.8181     -1473.5074      0             -1.9907826    
      4900   295.96478     -1473.8079      15.455606     -1458.3523     -1461.6213     -1473.8079      0             -0.65469745   
      5000   296.92466     -1473.1472      15.505732     -1457.6415     -1446.8397     -1473.1472      0              2.1633058    
      5100   310.68297     -1473.1118      16.224206     -1456.8876     -1440.1338     -1473.1118      0              3.3553207    
      5200   320.53448     -1473.7669      16.738662     -1457.0282     -1448.7926     -1473.7669      0              1.6493713    
      5300   280.76666     -1473.052       14.661943     -1458.3901     -1470.9113     -1473.052       0             -2.5076413    
      5400   290.55267     -1473.8315      15.172979     -1458.6585     -1453.904      -1473.8315      0              0.95219136   
      5500   309.71048     -1474.3361      16.173422     -1458.1627     -1468.2735     -1474.3361      0             -2.0249164    
      5600   290.75309     -1472.886       15.183446     -1457.7025     -1469.719      -1472.886       0             -2.4065714    
      5700   318.61879     -1473.6141      16.638623     -1456.9755     -1449.6365     -1473.6141      0              1.469808     
      5800   290.65809     -1472.512       15.178485     -1457.3335     -1453.6131     -1472.512       0              0.74508786   
      5900   306.5766      -1473.5547      16.009767     -1457.5449     -1437.2694     -1473.5547      0              4.0606277    
      6000   298.01666     -1473.4615      15.562757     -1457.8987     -1455.1919     -1473.4615      0              0.54209606   
      6100   294.37733     -1473.2456      15.372708     -1457.8729     -1470.2223     -1473.2456      0             -2.473253     
      6200   307.94998     -1473.6988      16.081486     -1457.6173     -1478.5282     -1473.6988      0             -4.1878702    
      6300   289.18653     -1472.9068      15.101638     -1457.8052     -1463.5622     -1472.9068      0             -1.1529689    
      6400   312.0156      -1473.6825      16.293798     -1457.3887     -1451.5123     -1473.6825      0              1.1768829    
      6500   294.56455     -1473.0932      15.382484     -1457.7107     -1446.8449     -1473.0932      0              2.1761271    
      6600   303.29958     -1474.0979      15.838637     -1458.2593     -1446.6051     -1474.0979      0              2.3340063    
      6700   284.76921     -1473.6397      14.870961     -1458.7688     -1450.2691     -1473.6397      0              1.7022348    
      6800   296.37084     -1473.3475      15.476811     -1457.8707     -1461.3375     -1473.3475      0             -0.69429423   
      6900   317.95217     -1473.0636      16.603811     -1456.4598     -1470.1115     -1473.0636      0             -2.7340535    
      7000   305.18256     -1472.3965      15.936969     -1456.4595     -1476.5123     -1472.3965      0             -4.0160076    
      7100   306.49092     -1473.354       16.005292     -1457.3487     -1466.2032     -1473.354       0             -1.7733152    
      7200   296.05652     -1473.9903      15.460397     -1458.5299     -1438.2714     -1473.9903      0              4.0572192    
      7300   288.97091     -1473.9252      15.090379     -1458.8348     -1451.4085     -1473.9252      0              1.4872973    
      7400   299.44077     -1473.7665      15.637126     -1458.1294     -1459.9732     -1473.7665      0             -0.36927183   
      7500   296.86199     -1472.6097      15.502459     -1457.1073     -1456.6836     -1472.6097      0              0.084856346  
      7600   314.099       -1472.7052      16.402595     -1456.3026     -1452.3095     -1472.7052      0              0.7996918    
      7700   312.47766     -1473.0968      16.317927     -1456.7789     -1464.9602     -1473.0968      0             -1.6384825    
      7800   303.09436     -1473.4968      15.827921     -1457.6689     -1455.569      -1473.4968      0              0.42054536   
      7900   282.43009     -1473.2249      14.748809     -1458.476      -1457.2362     -1473.2249      0              0.24830319   
      8000   311.26212     -1474.6704      16.25445      -1458.416      -1458.6676     -1474.6704      0             -0.050397111  
      8100   299.0337      -1473.6724      15.615868     -1458.0565     -1458.0144     -1473.6724      0              0.0084428351 
      8200   300.22079     -1472.9282      15.677859     -1457.2503     -1457.1209     -1472.9282      0              0.025922152  
      8300   312.661       -1473.1329      16.327501     -1456.8054     -1444.0304     -1473.1329      0              2.558473     
      8400   296.56004     -1472.6194      15.486691     -1457.1327     -1458.9412     -1472.6194      0             -0.36220465   
      8500   281.01712     -1472.5701      14.675023     -1457.895      -1457.4567     -1472.5701      0              0.087794905  
      8600   292.21064     -1473.4325      15.259561     -1458.1729     -1471.1441     -1473.4325      0             -2.5977737    
      8700   305.54376     -1473.5934      15.955831     -1457.6376     -1462.0182     -1473.5934      0             -0.87731704   
      8800   309.64023     -1473.238       16.169753     -1457.0683     -1454.2784     -1473.238       0              0.55874464   
      8900   288.33967     -1472.4304      15.057414     -1457.373      -1453.8204     -1472.4304      0              0.71149534   
      9000   305.10485     -1473.1638      15.932911     -1457.2309     -1454.0448     -1473.1638      0              0.63807298   
      9100   315.37273     -1473.3835      16.46911      -1456.9144     -1446.7969     -1473.3835      0              2.0262456    
      9200   303.31725     -1472.9389      15.83956      -1457.0993     -1459.2859     -1472.9389      0             -0.43789709   
      9300   296.27156     -1473.4172      15.471626     -1457.9456     -1479.4898     -1473.4172      0             -4.314716     
      9400   282.36421     -1473.6367      14.745369     -1458.8914     -1466.4634     -1473.6367      0             -1.516474     
      9500   300.62972     -1474.2594      15.699214     -1458.5602     -1453.1063     -1474.2594      0              1.0922661    
      9600   287.5641      -1472.7801      15.016913     -1457.7632     -1454.3097     -1472.7801      0              0.69164325   
      9700   292.91489     -1471.6983      15.296337     -1456.4019     -1435.0245     -1471.6983      0              4.2812984    
      9800   305.15053     -1471.7801      15.935296     -1455.8448     -1458.855      -1471.7801      0             -0.60285669   
      9900   312.3491      -1473.0297      16.311213     -1456.7184     -1468.135      -1473.0297      0             -2.2864087    
     10000   290.1856      -1473.1965      15.153811     -1458.0427     -1451.432      -1473.1965      0              1.3239413    
Loop time of 28.955 on 1 procs for 10000 steps with 405 atoms

Performance: 29.839 ns/day, 0.804 hours/ns, 345.363 timesteps/s, 139.872 katom-step/s
99.7% CPU use with 1 MPI tasks x 1 OpenMP threads

MPI task timing breakdown:
Section |  min time  |  avg time  |  max time  |%varavg| %total
---------------------------------------------------------------
Pair    | 28.74      | 28.74      | 28.74      |   0.0 | 99.26
Neigh   | 0          | 0          | 0          |   0.0 |  0.00
Comm    | 0.002405   | 0.002405   | 0.002405   |   0.0 |  0.01
Output  | 0.04601    | 0.04601    | 0.04601    |   0.0 |  0.16
Modify  | 0.14796    | 0.14796    | 0.14796    |   0.0 |  0.51
Other   |            | 0.01877    |            |       |  0.06

Nlocal:            405 ave         405 max         405 min
Histogram: 1 0 0 0 0 0 0 0 0 0
Nghost:              0 ave           0 max           0 min
Histogram: 1 0 0 0 0 0 0 0 0 0
Neighs:           7818 ave        7818 max        7818 min
Histogram: 1 0 0 0 0 0 0 0 0 0
FullNghs:        15636 ave       15636 max       15636 min
Histogram: 1 0 0 0 0 0 0 0 0 0

Total # of neighbors = 15636
Ave neighs/atom = 38.607407
Neighbor list builds = 0
Dangerous builds = 0

print "All done!"
All done!
Total wall time: 0:00:29
