LAMMPS (2 Aug 2023 - Update 2)
OMP_NUM_THREADS environment is not set. Defaulting to 1 thread. (src/comm.cpp:98)
  using 1 OpenMP thread(s) per MPI task
Loaded 1 plugins from C:\Program Files\LAMMPS 64-bit 2Aug2023 with GUI\plugins
# Initialization

units		  metal
dimension 	      3
boundary	  f f f
atom_style	 charge


# Atom Definition

read_data atom_definition.txt
Reading data file ...
  triclinic box = (0 0 0) to (200 200 200) with tilt (0 0 0)
  1 by 1 by 1 MPI processor grid
  reading atoms ...
  711 atoms
  read_data CPU = 0.004 seconds
mass		1 63.54

# Settings

pair_style	comb
pair_coeff	* * ffield.comb Cu
Reading comb potential file ffield.comb with DATE: 2011-02-22


timestep         0.001
velocity         all create 300 1551 mom yes rot yes dist gaussian
fix              2 all nvt temp 300 300 $(100.0*dt) drag 0.0 tchain 1
fix              2 all nvt temp 300 300 0.10000000000000000555 drag 0.0 tchain 1
fix              3 all recenter INIT INIT INIT

thermo_style custom step temp pe ke etotal enthalpy epair emol press
thermo 100


# Run a simulation

run              10000
Neighbor list info ...
  update: every = 1 steps, delay = 0 steps, check = yes
  max neighbors/atom: 2000, page size: 100000
  master list distance cutoff = 14
  ghost atom cutoff = 14
  binsize = 7, bins = 29 29 29
  1 neighbor lists, perpetual/occasional/extra = 1 0 0
  (1) pair comb, perpetual
      attributes: full, newton on
      pair build: full/bin/atomonly
      stencil: full/bin/3d
      bin: standard
Per MPI rank memory allocation (min/avg/max) = 7.708 | 7.708 | 7.708 Mbytes
   Step          Temp          PotEng         KinEng         TotEng        Enthalpy        E_pair         E_mol          Press     
         0   300           -1842.5895      27.532411     -1815.0571     -3839.1847     -1842.5895      0             -405.37621    
       100   648.22893     -2083.7007      59.491018     -2024.2097     -2749.9342     -2083.7007      0             -145.34235    
       200   132.86973     -2166.5104      12.19408      -2154.3164     -2845.9924     -2166.5104      0             -138.52339    
       300   110.14824     -2207.1011      10.108822     -2196.9923     -2727.1797     -2207.1011      0             -106.18172    
       400   129.15191     -2238.9543      11.852878     -2227.1014     -2596.1877     -2238.9543      0             -73.917685    
       500   130.94489     -2259.1727      12.017428     -2247.1553     -2385.2319     -2259.1727      0             -27.652892    
       600   76.655748     -2259.2822      7.0350585     -2252.2471     -2098.814      -2259.2822      0              30.728366    
       700   8.4503101     -2250.1902      0.7755247     -2249.4147     -1883.255      -2250.1902      0              73.33156     
       800   469.89634     -2258.0792      43.124597     -2214.9546     -2157.7197     -2258.0792      0              11.462543    
       900   663.95335     -2198.027       60.934121     -2137.0929     -2745.3156     -2198.027       0             -121.81002    
      1000   79.412689     -2173.0854      7.288076      -2165.7973     -2813.0653     -2173.0854      0             -129.62971    
      1100   479.60345     -2220.0658      44.015465     -2176.0503     -2542.606      -2220.0658      0             -73.410858    
      1200   312.68433     -2256.9963      28.696511     -2228.2997     -2230.949      -2256.9963      0             -0.53058042   
      1300   44.11126      -2251.4945      4.0482978     -2247.4462     -1983.8803     -2251.4945      0              52.784898    
      1400   105.40844     -2255.3123      9.673828      -2245.6385     -1996.104      -2255.3123      0              49.974777    
      1500   416.24541     -2251.8353      38.200799     -2213.6345     -2419.4567     -2251.8353      0             -41.220442    
      1600   336.9428      -2211.7984      30.922825     -2180.8756     -2674.0872     -2211.7984      0             -98.776503    
      1700   295.10164     -2192.9843      27.082865     -2165.9014     -2703.8215     -2192.9843      0             -107.73036    
      1800   654.16886     -2220.2866      60.036153     -2160.2504     -2365.3576     -2220.2866      0             -41.077241    
      1900   184.9717      -2226.9923      16.975723     -2210.0165     -1956.7028     -2226.9923      0              50.731664    
      2000   162.92615     -2237.2886      14.952499     -2222.3361     -1948.9436     -2237.2886      0              54.752871    
      2100   284.23802     -2250.4678      26.085859     -2224.3819     -2250.7002     -2250.4678      0             -5.2708199    
      2200   280.18292     -2248.3848      25.713704     -2222.6711     -2411.8647     -2248.3848      0             -37.890198    
      2300   278.70265     -2243.2441      25.577853     -2217.6663     -2383.2338     -2243.2441      0             -33.158552    
      2400   320.58626     -2238.2018      29.421709     -2208.7801     -2212.599      -2238.2018      0             -0.76482633   
      2500   229.35651     -2222.4805      21.049125     -2201.4314     -1952.6675     -2222.4805      0              49.820454    
      2600   334.44664     -2216.9402      30.693741     -2186.2464     -1986.147      -2216.9402      0              40.074329    
      2700   498.09287     -2217.2618      45.712325     -2171.5495     -2309.4132     -2217.2618      0             -27.610258    
      2800   284.92185     -2220.9681      26.148618     -2194.8195     -2434.6937     -2220.9681      0             -48.040108    
      2900   241.24686     -2233.5361      22.140359     -2211.3957     -2391.2031     -2233.5361      0             -36.010389    
      3000   256.43168     -2243.0831      23.533941     -2219.5492     -2231.0631     -2243.0831      0             -2.3059029    
      3100   222.12481     -2240.7377      20.385438     -2220.3523     -2006.0574     -2240.7377      0              42.917286    
      3200   317.68802     -2239.9988      29.155724     -2210.8431     -1977.803      -2239.9988      0              46.671418    
      3300   416.33231     -2240.2036      38.208774     -2201.9949     -2219.207      -2240.2036      0             -3.44712      
      3400   231.10739     -2232.6253      21.209812     -2211.4155     -2409.2349     -2232.6253      0             -39.617699    
      3500   229.34912     -2232.7292      21.048447     -2211.6808     -2397.0199     -2232.7292      0             -37.118257    
      3600   338.17435     -2232.1631      31.035851     -2201.1272     -2205.0898     -2232.1631      0             -0.79358027   
      3700   290.63158     -2220.282       26.672627     -2193.6094     -1936.0168     -2220.282       0              51.588609    
      3800   365.98353     -2222.2954      33.588029     -2188.7074     -1925.5114     -2222.2954      0              52.710809    
      3900   394.81549     -2233.17        36.234074     -2196.936      -2247.6659     -2233.17        0             -10.159792    
      4000   217.02858     -2236.8359      19.917734     -2216.9182     -2401.9412     -2236.8359      0             -37.054942    
      4100   201.66304     -2240.4292      18.507566     -2221.9217     -2373.3732     -2240.4292      0             -30.331505    
      4200   273.16607     -2239.3492      25.069735     -2214.2795     -2177.2499     -2239.3492      0              7.4159828    
      4300   321.74658     -2229.1285      29.528197     -2199.6003     -1917.818      -2229.1285      0              56.433122    
      4400   423.82839     -2225.8733      38.896725     -2186.9766     -1923.0669     -2225.8733      0              52.853727    
      4500   343.68983     -2229.5697      31.542032     -2198.0276     -2253.8838     -2229.5697      0             -11.18642     
      4600   198.98849     -2230.6764      18.26211      -2212.4143     -2412.853      -2230.6764      0             -40.142285    
      4700   244.84163     -2235.2248      22.470268     -2212.7545     -2365.5545     -2235.2248      0             -30.601566    
      4800   343.59998     -2235.643       31.533786     -2204.1092     -2170.3314     -2235.643       0              6.7647608    
      4900   306.75554     -2228.6417      28.152399     -2200.4893     -1922.9019     -2228.6417      0              55.593002    
      5000   353.30089     -2233.1617      32.424084     -2200.7377     -2002.148      -2233.1617      0              39.771958    
      5100   300.53988     -2236.9448      27.581958     -2209.3629     -2283.5055     -2236.9448      0             -14.848705    
      5200   213.45241     -2235.4996      19.589531     -2215.91       -2388.2122     -2235.4996      0             -34.507307    
      5300   278.81228     -2236.7019      25.587914     -2211.114      -2354.2641     -2236.7019      0             -28.668959    
      5400   363.12773     -2233.1879      33.32594      -2199.862      -2140.6277     -2233.1879      0              11.862969    
      5500   301.23775     -2225.559       27.646005     -2197.913      -1926.0665     -2225.559       0              54.443266    
      5600   315.18046     -2227.1045      28.925593     -2198.1789     -2039.6778     -2227.1045      0              31.743346    
      5700   318.81388     -2231.1787      29.259049     -2201.9197     -2298.6066     -2231.1787      0             -19.363685    
      5800   251.70838     -2230.1965      23.100462     -2207.0961     -2414.9461     -2230.1965      0             -41.626556    
      5900   312.69349     -2234.344       28.697353     -2205.6466     -2347.6269     -2234.344       0             -28.434688    
      6000   355.82301     -2238.4039      32.655551     -2205.7483     -2150.8296     -2238.4039      0              10.998686    
      6100   251.92828     -2235.5048      23.120643     -2212.3841     -1994.2447     -2235.5048      0              43.68723     
      6200   262.78814     -2236.5741      24.117304     -2212.4568     -2065.5835     -2236.5741      0              29.414631    
      6300   300.76428     -2233.5753      27.602552     -2205.9728     -2269.8156     -2233.5753      0             -12.78593     
      6400   279.2858      -2223.9727      25.631372     -2198.3413     -2414.9568     -2223.9727      0             -43.38204     
      6500   376.54475     -2223.2541      34.557282     -2188.6968     -2395.1032     -2223.2541      0             -41.33743     
      6600   402.16947     -2230.3489      36.908984     -2193.4399     -2211.4925     -2230.3489      0             -3.6154344    
      6700   262.07576     -2237.4153      24.051925     -2213.3634     -2072.3781     -2237.4153      0              28.235416    
      6800   200.00478     -2241.0408      18.35538      -2222.6854     -2075.6871     -2241.0408      0              29.439663    
      6900   235.6083      -2240.8672      21.622882     -2219.2443     -2204.6405     -2240.8672      0              2.9247324    
      7000   298.54325     -2232.4734      27.398718     -2205.0746     -2343.0902     -2232.4734      0             -27.640668    
      7100   372.01279     -2221.4198      34.141363     -2187.2785     -2381.9857     -2221.4198      0             -38.994426    
      7200   399.50704     -2220.2595      36.66464      -2183.5948     -2282.1212     -2220.2595      0             -19.732073    
      7300   311.55689     -2229.3595      28.593041     -2200.7665     -2158.8193     -2229.3595      0              8.4008435    
      7400   226.72065     -2236.7999      20.80722      -2215.9927     -2097.5204     -2236.7999      0              23.726696    
      7500   223.05757     -2239.998       20.471042     -2219.5269     -2154.0177     -2239.998       0              13.119661    
      7600   293.8105      -2239.4528      26.964372     -2212.4884     -2251.3739     -2239.4528      0             -7.787674     
      7700   334.41884     -2232.4187      30.69119      -2201.7275     -2292.7484     -2232.4187      0             -18.228928    
      7800   331.24334     -2227.2588      30.399759     -2196.8591     -2294.4651     -2227.2588      0             -19.547767    
      7900   317.90422     -2228.0664      29.175565     -2198.8908     -2192.9395     -2228.0664      0              1.1918818    
      8000   283.21878     -2228.6591      25.992319     -2202.6668     -2117.6671     -2228.6591      0              17.02306     
      8100   285.77743     -2230.5853      26.227139     -2204.3582     -2133.2285     -2230.5853      0              14.245295    
      8200   313.18079     -2234.027       28.742074     -2205.2849     -2211.4889     -2234.027       0             -1.2424825    
      8300   285.06161     -2234.2558      26.161444     -2208.0944     -2263.7337     -2234.2558      0             -11.143006    
      8400   266.62574     -2233.4717      24.469498     -2209.0022     -2256.3663     -2233.4717      0             -9.4856916    
      8500   296.17054     -2233.5133      27.180964     -2206.3324     -2206.5238     -2233.5133      0             -0.038339953  
      8600   308.73536     -2231.5231      28.334096     -2203.189      -2141.4016     -2231.5231      0              12.374272    
      8700   306.59228     -2229.5226      28.137415     -2201.3852     -2134.0126     -2229.5226      0              13.492855    
      8800   316.64302     -2231.454       29.059819     -2202.3942     -2197.241      -2231.454       0              1.032055     
      8900   282.89809     -2231.623       25.962888     -2205.6601     -2270.1993     -2231.623       0             -12.925392    
      9000   269.09896     -2231.1969      24.696477     -2206.5005     -2270.1478     -2231.1969      0             -12.746776    
      9100   302.28423     -2231.5688      27.742045     -2203.8268     -2209.1942     -2231.5688      0             -1.0749565    
      9200   317.52088     -2230.5061      29.140384     -2201.3657     -2120.5795     -2230.5061      0              16.179217    
      9300   311.86992     -2232.2605      28.62177      -2203.6388     -2130.5453     -2232.2605      0              14.638579    
      9400   286.20592     -2234.8119      26.266464     -2208.5455     -2194.0981     -2234.8119      0              2.8934013    
      9500   267.42137     -2235.1929      24.542517     -2210.6504     -2285.5498     -2235.1929      0             -15.000246    
      9600   274.2211      -2232.1885      25.16656      -2207.0219     -2256.4172     -2232.1885      0             -9.8924866    
      9700   339.63386     -2230.5875      31.169797     -2199.4177     -2201.6341     -2230.5875      0             -0.44389538   
      9800   331.85032     -2229.0295      30.455465     -2198.574      -2131.5429     -2229.0295      0              13.424462    
      9900   290.95202     -2230.742       26.702035     -2204.0399     -2152.6569     -2230.742       0              10.290587    
     10000   273.12414     -2234.3842      25.065887     -2209.3184     -2216.5462     -2234.3842      0             -1.4475266    
Loop time of 427.667 on 1 procs for 10000 steps with 711 atoms

Performance: 2.020 ns/day, 11.880 hours/ns, 23.383 timesteps/s, 16.625 katom-step/s
99.9% CPU use with 1 MPI tasks x 1 OpenMP threads

MPI task timing breakdown:
Section |  min time  |  avg time  |  max time  |%varavg| %total
---------------------------------------------------------------
Pair    | 427.17     | 427.17     | 427.17     |   0.0 | 99.88
Neigh   | 0.13896    | 0.13896    | 0.13896    |   0.0 |  0.03
Comm    | 0.005142   | 0.005142   | 0.005142   |   0.0 |  0.00
Output  | 0.060295   | 0.060295   | 0.060295   |   0.0 |  0.01
Modify  | 0.25894    | 0.25894    | 0.25894    |   0.0 |  0.06
Other   |            | 0.03523    |            |       |  0.01

Nlocal:            711 ave         711 max         711 min
Histogram: 1 0 0 0 0 0 0 0 0 0
Nghost:              0 ave           0 max           0 min
Histogram: 1 0 0 0 0 0 0 0 0 0
Neighs:              0 ave           0 max           0 min
Histogram: 1 0 0 0 0 0 0 0 0 0
FullNghs:       290560 ave      290560 max      290560 min
Histogram: 1 0 0 0 0 0 0 0 0 0

Total # of neighbors = 290560
Ave neighs/atom = 408.66385
Neighbor list builds = 40
Dangerous builds = 0

print "All done!"
All done!
Total wall time: 0:07:07
