LAMMPS (2 Aug 2023 - Update 2)
OMP_NUM_THREADS environment is not set. Defaulting to 1 thread. (src/comm.cpp:98)
  using 1 OpenMP thread(s) per MPI task
Loaded 1 plugins from C:\Program Files\LAMMPS 64-bit 2Aug2023 with GUI\plugins
# Initialization

units		  metal
dimension 	      3
boundary	  f f f
atom_style	 atomic


# Atom Definition

read_data atom_definition.txt
Reading data file ...
  orthogonal box = (-0 -0 -0) to (200 200 200)
  1 by 1 by 1 MPI processor grid
  reading atoms ...
  405 atoms
  read_data CPU = 0.003 seconds


# Settings

pair_style tersoff/mod/c
pair_coeff * * Au.tersoff.modc Au


timestep         0.001
velocity         all create 300 1551 mom yes rot yes dist gaussian
fix              2 all nvt temp 300 300 $(100.0*dt) drag 0.0 tchain 1
fix              2 all nvt temp 300 300 0.10000000000000000555 drag 0.0 tchain 1
fix              3 all recenter INIT INIT INIT

thermo_style custom step temp pe ke etotal enthalpy epair emol press
thermo 100


# Run a simulation

run              10000
Neighbor list info ...
  update: every = 1 steps, delay = 0 steps, check = yes
  max neighbors/atom: 2000, page size: 100000
  master list distance cutoff = 5.35
  ghost atom cutoff = 5.35
  binsize = 2.675, bins = 75 75 75
  1 neighbor lists, perpetual/occasional/extra = 1 0 0
  (1) pair tersoff/mod/c, perpetual
      attributes: full, newton on
      pair build: full/bin/atomonly
      stencil: full/bin/3d
      bin: standard
Per MPI rank memory allocation (min/avg/max) = 4.989 | 4.989 | 4.989 Mbytes
   Step          Temp          PotEng         KinEng         TotEng        Enthalpy        E_pair         E_mol          Press     
         0   300           -1279.3316      15.66633      -1263.6653     -2213.3874     -1279.3316      0             -190.20281    
       100   821.14406     -1335.9417      42.881045     -1293.0607     -1960.0784     -1335.9417      0             -133.58501    
       200   258.93677     -1382.5726      13.521963     -1369.0506     -1755.3403     -1382.5726      0             -77.363022    
       300   143.35279     -1405.5885      7.4860403     -1398.1025     -1736.2903     -1405.5885      0             -67.729581    
       400   151.01144     -1421.5258      7.8859833     -1413.6398     -1651.9992     -1421.5258      0             -47.736731    
       500   179.4722      -1432.4529      9.3722355     -1423.0807     -1527.948      -1432.4529      0             -21.001994    
       600   169.82877     -1434.4954      8.8686451     -1425.6267     -1349.2318     -1434.4954      0              15.29976     
       700   175.92619     -1429.6665      9.1870587     -1420.4794     -1157.6491     -1429.6665      0              52.637571    
       800   371.13599     -1422.5547      19.381129     -1403.1736     -1059.2297     -1422.5547      0              68.882344    
       900   655.88592     -1421.6831      34.251083     -1387.432      -1335.5555     -1421.6831      0              10.389407    
      1000   240.16623     -1425.745       12.541744     -1413.2032     -1581.6923     -1425.745       0             -33.743644    
      1100   169.87063     -1432.575       8.8708311     -1423.7042     -1606.1781     -1432.575       0             -36.544424    
      1200   231.09235     -1438.1556      12.067897     -1426.0877     -1524.4505     -1438.1556      0             -19.699325    
      1300   318.39163     -1440.1161      16.626761     -1423.4894     -1375.9824     -1440.1161      0              9.514314     
      1400   274.88199     -1435.2958      14.354639     -1420.9411     -1194.2532     -1435.2958      0              45.399266    
      1500   353.36518     -1435.4076      18.453118     -1416.9545     -1190.1468     -1435.4076      0              45.423253    
      1600   399.23521     -1440.2833      20.848501     -1419.4348     -1371.8169     -1440.2833      0              9.5365519    
      1700   245.00518     -1442.5728      12.79444      -1429.7784     -1577.3727     -1442.5728      0             -29.559027    
      1800   202.29908     -1444.2935      10.56428      -1433.7292     -1600.9457     -1444.2935      0             -33.488793    
      1900   283.75779     -1445.515       14.818143     -1430.6969     -1482.9462     -1445.515       0             -10.46409     
      2000   373.36939     -1444.1853      19.49776      -1424.6875     -1361.9779     -1444.1853      0              12.558984    
      2100   315.53729     -1441.8896      16.477704     -1425.4119     -1243.7052     -1441.8896      0              36.390761    
      2200   328.9116      -1446.2428      17.176125     -1429.0667     -1289.0446     -1446.2428      0              28.042498    
      2300   312.85956     -1451.9788      16.33787      -1435.6409     -1421.4625     -1451.9788      0              2.8395376    
      2400   246.0521      -1454.3819      12.849111     -1441.5328     -1535.0107     -1454.3819      0             -18.721029    
      2500   238.78651     -1454.4913      12.469694     -1442.0216     -1543.4115     -1454.4913      0             -20.305556    
      2600   309.88434     -1453.2345      16.182501     -1437.052      -1457.8569     -1453.2345      0             -4.16665      
      2700   371.52969     -1451.1448      19.401689     -1431.7431     -1360.3792     -1451.1448      0              14.292184    
      2800   368.30748     -1452.4154      19.233421     -1433.182      -1324.284      -1452.4154      0              21.809219    
      2900   299.3828      -1454.7462      15.634099     -1439.1121     -1392.5713     -1454.7462      0              9.3208295    
      3000   251.91086     -1457.8974      13.155062     -1444.7424     -1473.7014     -1457.8974      0             -5.7996807    
      3100   236.67239     -1458.9204      12.359292     -1446.5611     -1509.3882     -1458.9204      0             -12.5825      
      3200   294.37241     -1459.1647      15.372451     -1443.7923     -1478.2073     -1459.1647      0             -6.8923728    
      3300   329.38482     -1457.0117      17.200837     -1439.8109     -1438.6901     -1457.0117      0              0.22447321   
      3400   329.33009     -1456.1666      17.197979     -1438.9687     -1379.9635     -1456.1666      0              11.817092    
      3500   308.13742     -1458.2274      16.091275     -1442.1361     -1384.7174     -1458.2274      0              11.499368    
      3600   281.2166      -1461.2013      14.68544      -1446.5158     -1438.7436     -1461.2013      0              1.5565603    
      3700   280.55707     -1463.7524      14.650998     -1449.1014     -1489.0016     -1463.7524      0             -7.9908875    
      3800   285.89843     -1464.1187      14.92993      -1449.1888     -1473.095      -1464.1187      0             -4.7877428    
      3900   280.58904     -1461.5827      14.652668     -1446.93       -1472.7282     -1461.5827      0             -5.1666583    
      4000   323.84159     -1460.5905      16.911364     -1443.6792     -1408.268      -1460.5905      0              7.0918759    
      4100   323.11895     -1459.9754      16.873627     -1443.1018     -1409.9523     -1459.9754      0              6.6389151    
      4200   305.64932     -1461.6069      15.961343     -1445.6455     -1421.7498     -1461.6069      0              4.785641     
      4300   287.23155     -1463.6161      14.999547     -1448.6166     -1462.663      -1463.6161      0             -2.8131001    
      4400   269.44756     -1463.8686      14.070847     -1449.7977     -1465.3512     -1463.8686      0             -3.1149213    
      4500   279.91562     -1463.157       14.617501     -1448.5395     -1474.0676     -1463.157       0             -5.1125621    
      4600   314.2603      -1462.302       16.411018     -1445.891      -1427.1349     -1462.302       0              3.7563167    
      4700   334.37709     -1461.4429      17.461539     -1443.9814     -1426.1066     -1461.4429      0              3.5798291    
      4800   328.44434     -1462.2997      17.151724     -1445.148      -1423.4233     -1462.2997      0              4.3508496    
      4900   294.01444     -1464.5228      15.353757     -1449.169      -1443.3906     -1464.5228      0              1.1572566    
      5000   264.60869     -1465.7802      13.818157     -1451.962      -1476.5579     -1465.7802      0             -4.925867     
      5100   290.71454     -1466.9609      15.181433     -1451.7795     -1462.0121     -1466.9609      0             -2.0493181    
      5200   285.60909     -1465.1076      14.914821     -1450.1928     -1453.9063     -1465.1076      0             -0.74370066   
      5300   313.11804     -1464.0749      16.351368     -1447.7235     -1444.1432     -1464.0749      0              0.71704426   
      5400   327.95072     -1464.4315      17.125947     -1447.3056     -1442.3843     -1464.4315      0              0.98560033   
      5500   310.41659     -1465.8874      16.210295     -1449.6771     -1412.5202     -1465.8874      0              7.4414855    
      5600   283.7656      -1467.1474      14.818551     -1452.3288     -1446.7446     -1467.1474      0              1.1183695    
      5700   286.05463     -1468.4339      14.938087     -1453.4958     -1467.1271     -1468.4339      0             -2.729972     
      5800   277.77005     -1467.5204      14.505457     -1453.0149     -1491.0322     -1467.5204      0             -7.6137973    
      5900   305.54222     -1466.4301      15.95575      -1450.4743     -1470.5793     -1466.4301      0             -4.0264743    
      6000   331.7531      -1465.2749      17.324512     -1447.9504     -1417.0936     -1465.2749      0              6.1797528    
      6100   336.32103     -1465.9304      17.563054     -1448.3673     -1406.1546     -1465.9304      0              8.4540238    
      6200   305.66374     -1467.6161      15.962096     -1451.654      -1427.5119     -1467.6161      0              4.8349919    
      6300   271.44841     -1468.7214      14.175334     -1454.5461     -1470.9235     -1468.7214      0             -3.2799338    
      6400   272.21729     -1469.1255      14.215486     -1454.91       -1497.7141     -1469.1255      0             -8.5724696    
      6500   294.96527     -1467.7271      15.403411     -1452.3237     -1451.2367     -1467.7271      0              0.21769203   
      6600   327.52847     -1466.204       17.103896     -1449.1001     -1455.8201     -1466.204       0             -1.3458379    
      6700   320.73588     -1465.5669      16.74918      -1448.8177     -1422.5908     -1465.5669      0              5.2525263    
      6800   306.05557     -1467.2529      15.982558     -1451.2703     -1426.1588     -1467.2529      0              5.0291392    
      6900   288.53118     -1468.9398      15.067415     -1453.8723     -1438.2835     -1468.9398      0              3.1220175    
      7000   263.408       -1468.4003      13.755455     -1454.6449     -1479.4649     -1468.4003      0             -4.9707699    
      7100   306.10527     -1469.0901      15.985153     -1453.105      -1439.1969     -1469.0901      0              2.7853935    
      7200   321.75325     -1468.107       16.802308     -1451.3047     -1472.6643     -1468.107       0             -4.2777258    
      7300   334.98654     -1468.6323      17.493365     -1451.1389     -1460.7406     -1468.6323      0             -1.9229482    
      7400   283.82385     -1468.4479      14.821593     -1453.6263     -1427.7147     -1468.4479      0              5.1893632    
      7500   292.84218     -1470.4402      15.29254      -1455.1477     -1451.0523     -1470.4402      0              0.82018561   
      7600   284.08278     -1470.3036      14.835115     -1455.4684     -1448.2767     -1470.3036      0              1.4403114    
      7700   293.24055     -1469.9166      15.313344     -1454.6032     -1474.4706     -1469.9166      0             -3.9788791    
      7800   309.34721     -1469.6432      16.154451     -1453.4887     -1471.4685     -1469.6432      0             -3.6008419    
      7900   316.59833     -1469.5007      16.533112     -1452.9676     -1459.5118     -1469.5007      0             -1.3106309    
      8000   299.19367     -1469.1648      15.624222     -1453.5406     -1452.6854     -1469.1648      0              0.1712705    
      8100   300.10757     -1469.968       15.671947     -1454.2961     -1412.6502     -1469.968       0              8.3404919    
      8200   304.91929     -1470.8614      15.92322      -1454.9382     -1453.5393     -1470.8614      0              0.28016701   
      8300   304.91453     -1471.0439      15.922972     -1455.1209     -1460.2984     -1471.0439      0             -1.0369062    
      8400   294.31485     -1470.1522      15.369445     -1454.7827     -1481.3916     -1470.1522      0             -5.3290067    
      8500   307.39525     -1469.8826      16.052518     -1453.8301     -1449.8909     -1469.8826      0              0.7889102    
      8600   316.05225     -1469.8623      16.504596     -1453.3577     -1440.7558     -1469.8623      0              2.523818     
      8700   306.48066     -1470.2915      16.004757     -1454.2867     -1449.69       -1470.2915      0              0.92059061   
      8800   297.2927      -1471.1232      15.524951     -1455.5983     -1452.2875     -1471.1232      0              0.66306277   
      8900   305.88703     -1472.4389      15.973757     -1456.4652     -1465.4527     -1472.4389      0             -1.7999528    
      9000   294.8858      -1471.9095      15.39926      -1456.5102     -1439.6946     -1471.9095      0              3.3676904    
      9100   291.65062     -1471.0699      15.230316     -1455.8396     -1458.2256     -1471.0699      0             -0.47784371   
      9200   321.12894     -1471.4565      16.769706     -1454.6868     -1456.4223     -1471.4565      0             -0.3475749    
      9300   317.84161     -1471.1422      16.598038     -1454.5441     -1461.3198     -1471.1422      0             -1.3569765    
      9400   297.09153     -1470.7922      15.514446     -1455.2778     -1476.4212     -1470.7922      0             -4.2344297    
      9500   296.59653     -1471.5248      15.488597     -1456.0362     -1442.7049     -1471.5248      0              2.6698729    
      9600   302.96539     -1472.8682      15.821185     -1457.047      -1444.1027     -1472.8682      0              2.5923893    
      9700   284.78256     -1472.338       14.871658     -1457.4664     -1446.5349     -1472.338       0              2.1892766    
      9800   294.65588     -1472.2412      15.387254     -1456.8539     -1459.5446     -1472.2412      0             -0.53887131   
      9900   315.64717     -1472.722       16.483442     -1456.2386     -1452.5061     -1472.722       0              0.7475193    
     10000   296.29914     -1471.6498      15.473067     -1456.1767     -1482.2167     -1471.6498      0             -5.2150834    
Loop time of 229.304 on 1 procs for 10000 steps with 405 atoms

Performance: 3.768 ns/day, 6.370 hours/ns, 43.610 timesteps/s, 17.662 katom-step/s
100.0% CPU use with 1 MPI tasks x 1 OpenMP threads

MPI task timing breakdown:
Section |  min time  |  avg time  |  max time  |%varavg| %total
---------------------------------------------------------------
Pair    | 229.09     | 229.09     | 229.09     |   0.0 | 99.91
Neigh   | 0.00674    | 0.00674    | 0.00674    |   0.0 |  0.00
Comm    | 0.005392   | 0.005392   | 0.005392   |   0.0 |  0.00
Output  | 0.036194   | 0.036194   | 0.036194   |   0.0 |  0.02
Modify  | 0.14331    | 0.14331    | 0.14331    |   0.0 |  0.06
Other   |            | 0.0193     |            |       |  0.01

Nlocal:            405 ave         405 max         405 min
Histogram: 1 0 0 0 0 0 0 0 0 0
Nghost:              0 ave           0 max           0 min
Histogram: 1 0 0 0 0 0 0 0 0 0
Neighs:              0 ave           0 max           0 min
Histogram: 1 0 0 0 0 0 0 0 0 0
FullNghs:        15666 ave       15666 max       15666 min
Histogram: 1 0 0 0 0 0 0 0 0 0

Total # of neighbors = 15666
Ave neighs/atom = 38.681481
Neighbor list builds = 7
Dangerous builds = 0

print "All done!"
All done!
Total wall time: 0:03:49
