LAMMPS (2 Aug 2023 - Update 2)
OMP_NUM_THREADS environment is not set. Defaulting to 1 thread. (src/comm.cpp:98)
  using 1 OpenMP thread(s) per MPI task
Loaded 1 plugins from C:\Program Files\LAMMPS 64-bit 2Aug2023 with GUI\plugins
# Initialization

units		  metal
dimension 	      3
boundary	  f f f
atom_style	 atomic


# Atom Definition

read_data atom_definition.txt
Reading data file ...
  orthogonal box = (-0 -0 -0) to (200 200 200)
  1 by 1 by 1 MPI processor grid
  reading atoms ...
  1139 atoms
  read_data CPU = 0.005 seconds


# Settings

pair_style tersoff
pair_coeff * * Au.tersoff.modc Au


timestep         0.001
velocity         all create 300 1551 mom yes rot yes dist gaussian
fix              2 all nvt temp 300 300 $(100.0*dt) drag 0.0 tchain 1
fix              2 all nvt temp 300 300 0.10000000000000000555 drag 0.0 tchain 1
fix              3 all recenter INIT INIT INIT

thermo_style custom step temp pe ke etotal enthalpy epair emol press
thermo 100


# Run a simulation

run              10000
Neighbor list info ...
  update: every = 1 steps, delay = 0 steps, check = yes
  max neighbors/atom: 2000, page size: 100000
  master list distance cutoff = 5.35
  ghost atom cutoff = 5.35
  binsize = 2.675, bins = 75 75 75
  1 neighbor lists, perpetual/occasional/extra = 1 0 0
  (1) pair tersoff, perpetual
      attributes: full, newton on
      pair build: full/bin/atomonly
      stencil: full/bin/3d
      bin: standard
Per MPI rank memory allocation (min/avg/max) = 4.995 | 4.995 | 4.995 Mbytes
   Step          Temp          PotEng         KinEng         TotEng        Enthalpy        E_pair         E_mol          Press     
         0   300           -3405.7392      44.129414     -3361.6098     -6301.7711     -3405.7392      0             -588.83218    
       100   989.41713     -3616.2775      145.54133     -3470.7362     -6066.1726     -3616.2775      0             -519.79341    
       200   257.7334      -3784.8052      37.912079     -3746.8932     -5275.4433     -3784.8052      0             -306.12588    
       300   198.40633     -3887.9284      29.185184     -3858.7432     -5184.0023     -3887.9284      0             -265.41237    
       400   322.19582     -4023.6885      47.394375     -3976.2941     -4816.8798     -4023.6885      0             -168.34582    
       500   478.51006     -4246.1179      70.387894     -4175.73       -4408.6842     -4246.1179      0             -46.654205    
       600   423.41569     -4531.139       62.28362      -4468.8553     -4170.5969     -4531.139       0              59.732832    
       700   363.57048     -4814.3905      53.480506     -4760.91       -4055.4493     -4814.3905      0              141.28407    
       800   311.17109     -5086.4392      45.772659     -5040.6665     -4076.4895     -5086.4392      0              193.09772    
       900   270.99916     -5309.7217      39.863447     -5269.8582     -4044.1151     -5309.7217      0              245.48211    
      1000   259.49554     -5516.0668      38.171286     -5477.8955     -4120.9086     -5516.0668      0              271.76657    
      1100   236.05408     -5709.4689      34.723094     -5674.7458     -4233.8639     -5709.4689      0              288.5684     
      1200   251.83965     -5887.4833      37.04512      -5850.4382     -4296.3665     -5887.4833      0              311.23714    
      1300   271.25163     -6059.6516      39.900584     -6019.7511     -4436.2102     -6059.6516      0              317.139      
      1400   250.74078     -6218.4542      36.883479     -6181.5707     -4620.3487     -6218.4542      0              312.66916    
      1500   255.40581     -6372.5162      37.569695     -6334.9466     -4776.3345     -6372.5162      0              312.14644    
      1600   247.77494     -6509.4563      36.44721      -6473.0091     -5052.293      -6509.4563      0              284.52973    
      1700   247.53622     -6631.1813      36.412094     -6594.7692     -5356.5462     -6631.1813      0              247.98147    
      1800   230.15715     -6730.0865      33.855667     -6696.2309     -5635.4756     -6730.0865      0              212.43965    
      1900   216.87476     -6810.3102      31.901854     -6778.4083     -5892.0949     -6810.3102      0              177.50382    
      2000   230.34098     -6877.4068      33.882708     -6843.5241     -6144.2253     -6877.4068      0              140.05002    
      2100   246.89731     -6931.9501      36.318112     -6895.632      -6292.1147     -6931.9501      0              120.86766    
      2200   264.54112     -6978.3189      38.913481     -6939.4054     -6557.0497     -6978.3189      0              76.575174    
      2300   249.9667      -7008.3123      36.769612     -6971.5427     -6709.646      -7008.3123      0              52.450597    
      2400   274.01102     -7032.3855      40.306485     -6992.079      -6845.7986     -7032.3855      0              29.295882    
      2500   296.89138     -7051.0792      43.672142     -7007.4071     -6969.6276     -7051.0792      0              7.5661808    
      2600   280.17647     -7061.5038      41.213411     -7020.2904     -6971.647      -7061.5038      0              9.7419023    
      2700   317.40384     -7075.3711      46.689484     -7028.6816     -6941.9639     -7075.3711      0              17.367131    
      2800   302.41219     -7084.4333      44.484241     -7039.949      -6987.583      -7084.4333      0              10.487443    
      2900   288.82342     -7094.8455      42.485361     -7052.3602     -6963.594      -7094.8455      0              17.777374    
      3000   290.55709     -7104.1947      42.74038      -7061.4544     -7080.3362     -7104.1947      0             -3.7815126    
      3100   310.31314     -7112.5179      45.646456     -7066.8715     -7001.7263     -7112.5179      0              13.046758    
      3200   298.28768     -7117.2595      43.877535     -7073.382      -7101.2918     -7117.2595      0             -5.5895542    
      3300   286.52556     -7121.6665      42.14735      -7079.5192     -7110.0284     -7121.6665      0             -6.1101438    
      3400   312.80924     -7130.2841      46.013628     -7084.2704     -7077.4774     -7130.2841      0              1.3604589    
      3500   294.59894     -7133.2991      43.334928     -7089.9641     -7068.1541     -7133.2991      0              4.3679403    
      3600   288.72935     -7137.1442      42.471524     -7094.6727     -7125.3911     -7137.1442      0             -6.1520346    
      3700   300.7646      -7141.3348      44.241885     -7097.0929     -7068.6337     -7141.3348      0              5.6995837    
      3800   305.90746     -7144.5022      44.998389     -7099.5038     -7045.0949     -7144.5022      0              10.896589    
      3900   294.29503     -7145.7245      43.290223     -7102.4343     -7135.8853     -7145.7245      0             -6.6993067    
      4000   293.8638      -7147.5599      43.22679      -7104.3331     -7175.5648     -7147.5599      0             -14.265723    
      4100   297.63127     -7148.5182      43.780978     -7104.7373     -7109.6805     -7148.5182      0             -0.98998144   
      4200   300.79673     -7149.2837      44.24661      -7105.0371     -7053.0572     -7149.2837      0              10.410124    
      4300   304.84356     -7151.3694      44.841892     -7106.5275     -7040.8724     -7151.3694      0              13.148885    
      4400   296.56393     -7152.3458      43.623975     -7108.7218     -7059.7588     -7152.3458      0              9.8059253    
      4500   294.44317     -7153.5426      43.312014     -7110.2306     -7096.0381     -7153.5426      0              2.8423478    
      4600   308.19738     -7156.763       45.335233     -7111.4277     -7067.4358     -7156.763       0              8.8103526    
      4700   297.34699     -7158.2869      43.739161     -7114.5477     -7074.7623     -7158.2869      0              7.9678987    
      4800   286.96036     -7160.0933      42.211308     -7117.882      -7049.6699     -7160.0933      0              13.660988    
      4900   292.28411     -7161.1182      42.994422     -7118.1238     -7160.0545     -7161.1182      0             -8.3975537    
      5000   306.47707     -7160.712       45.082178     -7115.6298     -7108.0861     -7160.712       0              1.510786     
      5100   309.91751     -7160.3029      45.58826      -7114.7146     -7168.2591     -7160.3029      0             -10.723462    
      5200   311.72275     -7162.941       45.853807     -7117.0872     -7210.1575     -7162.941       0             -18.639387    
      5300   280.01442     -7162.1643      41.189574     -7120.9748     -7070.1241     -7162.1643      0              10.183964    
      5400   281.55421     -7162.057       41.416073     -7120.6409     -7114.5009     -7162.057       0              1.2296685    
      5500   308.61508     -7161.764       45.396675     -7116.3673     -7135.9502     -7161.764       0             -3.9218965    
      5600   316.68244     -7160.1793      46.583368     -7113.596      -7077.8619     -7160.1793      0              7.1565295    
      5700   308.06535     -7161.919       45.31581      -7116.6032     -7141.5342     -7161.919       0             -4.9929867    
      5800   297.51289     -7166.4029      43.763564     -7122.6393     -7212.8058     -7166.4029      0             -18.057815    
      5900   279.74072     -7167.9824      41.149312     -7126.8331     -7105.2996     -7167.9824      0              4.3125627    
      6000   283.59306     -7168.1035      41.715985     -7126.3875     -7218.2237     -7168.1035      0             -18.392231    
      6100   312.16926     -7169.5875      45.919488     -7123.6681     -7152.74       -7169.5875      0             -5.8222951    
      6200   307.56686     -7169.9098      45.242484     -7124.6673     -7128.7137     -7169.9098      0             -0.81037818   
      6300   291.52361     -7170.6929      42.882552     -7127.8104     -7089.809      -7170.6929      0              7.6106159    
      6400   284.47438     -7171.8006      41.845625     -7129.955      -7214.71       -7171.8006      0             -16.974061    
      6500   304.62642     -7173.5665      44.809951     -7128.7566     -7121.2391     -7173.5665      0              1.5055365    
      6600   317.44133     -7174.1381      46.694999     -7127.4431     -7170.7013     -7174.1381      0             -8.6634025    
      6700   309.00225     -7174.1304      45.453627     -7128.6767     -7170.0364     -7174.1304      0             -8.2831836    
      6800   300.3134      -7175.518       44.175514     -7131.3425     -7076.707      -7175.518       0              10.941976    
      6900   290.38284     -7176.1192      42.714747     -7133.4044     -7098.8477     -7176.1192      0              6.9207491    
      7000   291.00556     -7176.1276      42.806349     -7133.3213     -6984.3887     -7176.1276      0              29.827033    
      7100   297.60067     -7174.9276      43.776477     -7131.1511     -7132.2258     -7174.9276      0             -0.21522187   
      7200   314.07713     -7175.2987      46.200132     -7129.0986     -7161.6625     -7175.2987      0             -6.5216487    
      7300   311.23178     -7175.7449      45.781587     -7129.9633     -7077.1965     -7175.7449      0              10.567711    
      7400   298.96533     -7176.6164      43.977215     -7132.6392     -7122.2548     -7176.6164      0              2.0796985    
      7500   295.39395     -7177.6653      43.451872     -7134.2134     -7209.1192     -7177.6653      0             -15.001539    
      7600   298.91219     -7177.7308      43.969399     -7133.7614     -7081.9657     -7177.7308      0              10.37323     
      7700   303.46899     -7176.8285      44.639696     -7132.1888     -7121.6527     -7176.8285      0              2.1100979    
      7800   303.44594     -7176.0994      44.636304     -7131.4631     -7074.6774     -7176.0994      0              11.3726      
      7900   298.54627     -7175.9639      43.915572     -7132.0484     -7060.5428     -7175.9639      0              14.320571    
      8000   307.39185     -7177.5803      45.21674      -7132.3636     -7087.5696     -7177.5803      0              8.9709759    
      8100   294.28222     -7176.1346      43.288339     -7132.8462     -7154.8865     -7176.1346      0             -4.4140561    
      8200   301.79272     -7177.6547      44.393119     -7133.2616     -7116.7429     -7177.6547      0              3.3082328    
      8300   291.19211     -7176.8445      42.833791     -7134.0107     -7156.2974     -7176.8445      0             -4.4633983    
      8400   298.83195     -7177.9083      43.957595     -7133.9507     -7128.9941     -7177.9083      0              0.9926773    
      8500   300.42252     -7177.4213      44.191565     -7133.2297     -7106.0898     -7177.4213      0              5.4353608    
      8600   289.40447     -7174.335       42.570832     -7131.7641     -7158.8863     -7174.335       0             -5.431804     
      8700   308.19133     -7174.6848      45.334342     -7129.3505     -7171.0436     -7174.6848      0             -8.3499674    
      8800   301.14634     -7172.9285      44.298037     -7128.6305     -7143.6008     -7172.9285      0             -2.9981338    
      8900   307.93062     -7175.8931      45.295992     -7130.5971     -7152.5582     -7175.8931      0             -4.3981891    
      9000   300.49765     -7178.4863      44.202617     -7134.2837     -7094.4634     -7178.4863      0              7.974899     
      9100   287.30102     -7179.0949      42.261418     -7136.8334     -7141.4459     -7179.0949      0             -0.92375112   
      9200   290.68835     -7178.8179      42.759687     -7136.0582     -7234.3356     -7178.8179      0             -19.682215    
      9300   309.5302      -7178.0313      45.531287     -7132.5        -7210.6411     -7178.0313      0             -15.64946     
      9400   308.5938      -7175.0691      45.393545     -7129.6755     -7076.9493     -7175.0691      0              10.559603    
      9500   314.6584      -7176.8879      46.285635     -7130.6022     -7061.2897     -7176.8879      0              13.881359    
      9600   297.8721      -7178.0861      43.816403     -7134.2697     -7187.5301     -7178.0861      0             -10.666563    
      9700   291.97434     -7180.421       42.948854     -7137.4721     -7112.4082     -7180.421       0              5.0195929    
      9800   283.48145     -7178.7778      41.699567     -7137.0782     -7107.2027     -7178.7778      0              5.9832323    
      9900   316.88766     -7179.3218      46.613556     -7132.7083     -7086.8266     -7179.3218      0              9.1888056    
     10000   322.46283     -7176.8193      47.433653     -7129.3857     -7106.5369     -7176.8193      0              4.5759727    
Loop time of 158.132 on 1 procs for 10000 steps with 1139 atoms

Performance: 5.464 ns/day, 4.393 hours/ns, 63.238 timesteps/s, 72.029 katom-step/s
100.0% CPU use with 1 MPI tasks x 1 OpenMP threads

MPI task timing breakdown:
Section |  min time  |  avg time  |  max time  |%varavg| %total
---------------------------------------------------------------
Pair    | 157.47     | 157.47     | 157.47     |   0.0 | 99.58
Neigh   | 0.10414    | 0.10414    | 0.10414    |   0.0 |  0.07
Comm    | 0.011101   | 0.011101   | 0.011101   |   0.0 |  0.01
Output  | 0.037129   | 0.037129   | 0.037129   |   0.0 |  0.02
Modify  | 0.44305    | 0.44305    | 0.44305    |   0.0 |  0.28
Other   |            | 0.06275    |            |       |  0.04

Nlocal:           1139 ave        1139 max        1139 min
Histogram: 1 0 0 0 0 0 0 0 0 0
Nghost:              0 ave           0 max           0 min
Histogram: 1 0 0 0 0 0 0 0 0 0
Neighs:              0 ave           0 max           0 min
Histogram: 1 0 0 0 0 0 0 0 0 0
FullNghs:        24742 ave       24742 max       24742 min
Histogram: 1 0 0 0 0 0 0 0 0 0

Total # of neighbors = 24742
Ave neighs/atom = 21.722564
Neighbor list builds = 47
Dangerous builds = 0

print "All done!"
All done!
Total wall time: 0:02:38
