LAMMPS (2 Aug 2023 - Update 2)
OMP_NUM_THREADS environment is not set. Defaulting to 1 thread. (src/comm.cpp:98)
  using 1 OpenMP thread(s) per MPI task
Loaded 1 plugins from C:\Program Files\LAMMPS 64-bit 2Aug2023 with GUI\plugins
# Initialization

units		  metal
dimension 	      3
boundary	  f f f
atom_style	 atomic


# Atom Definition

read_data atom_definition.txt
Reading data file ...
  orthogonal box = (-0 -0 -0) to (200 200 200)
  1 by 1 by 1 MPI processor grid
  reading atoms ...
  711 atoms
  read_data CPU = 0.004 seconds


# Settings

pair_style tersoff
pair_coeff * * Au.tersoff.modc Au


timestep         0.001
velocity         all create 300 1551 mom yes rot yes dist gaussian
fix              2 all nvt temp 300 300 $(100.0*dt) drag 0.0 tchain 1
fix              2 all nvt temp 300 300 0.10000000000000000555 drag 0.0 tchain 1
fix              3 all recenter INIT INIT INIT

thermo_style custom step temp pe ke etotal enthalpy epair emol press
thermo 100


# Run a simulation

run              10000
Neighbor list info ...
  update: every = 1 steps, delay = 0 steps, check = yes
  max neighbors/atom: 2000, page size: 100000
  master list distance cutoff = 5.35
  ghost atom cutoff = 5.35
  binsize = 2.675, bins = 75 75 75
  1 neighbor lists, perpetual/occasional/extra = 1 0 0
  (1) pair tersoff, perpetual
      attributes: full, newton on
      pair build: full/bin/atomonly
      stencil: full/bin/3d
      bin: standard
Per MPI rank memory allocation (min/avg/max) = 4.991 | 4.991 | 4.991 Mbytes
   Step          Temp          PotEng         KinEng         TotEng        Enthalpy        E_pair         E_mol          Press     
         0   300           -2111.4495      27.532411     -2083.9171     -3918.3479     -2111.4495      0             -367.38523    
       100   1031.1805     -2263.7726      94.636281     -2169.1363     -3701.8373     -2263.7726      0             -306.95719    
       200   231.2529      -2372.203       21.223166     -2350.9799     -3232.6238     -2372.203       0             -176.56864    
       300   178.02474     -2433.1451      16.338168     -2416.807      -3166.4597     -2433.1451      0             -150.13451    
       400   279.27705     -2507.4699      25.630569     -2481.8393     -2964.8087     -2507.4699      0             -96.725262    
       500   430.97686     -2617.4437      39.552773     -2577.891      -2652.2146     -2617.4437      0             -14.884947    
       600   466.30893     -2798.085       42.795363     -2755.2897     -2510.8557     -2798.085       0              48.953299    
       700   354.27051     -2980.5185      32.513071     -2948.0054     -2460.02       -2980.5185      0              97.72985     
       800   317.27442     -3153.2768      29.117765     -3124.159      -2526.8124     -3153.2768      0              119.63183    
       900   308.56607     -3319.1976      28.318559     -3290.879      -2581.2728     -3319.1976      0              142.1143     
      1000   245.81011     -3455.8685      22.559149     -3433.3094     -2569.2221     -3455.8685      0              173.05253    
      1100   236.6693      -3577.113       21.720255     -3555.3928     -2703.6897     -3577.113       0              170.57234    
      1200   273.36056     -3699.5515      25.087584     -3674.464      -2758.3983     -3699.5515      0              183.46236    
      1300   234.85299     -3812.7944      21.553563     -3791.2408     -2945.6424     -3812.7944      0              169.34973    
      1400   241.1601      -3913.0661      22.132396     -3890.9337     -3061.1656     -3913.0661      0              166.17936    
      1500   240.79111     -4009.4342      22.098533     -3987.3357     -3155.2569     -4009.4342      0              166.64212    
      1600   241.5134      -4090.4689      22.16482      -4068.3041     -3274.4351     -4090.4689      0              158.98977    
      1700   249.82851     -4164.2872      22.927937     -4141.3593     -3394.0646     -4164.2872      0              149.66225    
      1800   224.12395     -4232.6526      20.568909     -4212.0836     -3701.8946     -4232.6526      0              102.1766     
      1900   184.81447     -4275.9629      16.961293     -4259.0016     -3887.5815     -4275.9629      0              74.385081    
      2000   210.15009     -4309.9035      19.286462     -4290.6171     -3977.5873     -4309.9035      0              62.691118    
      2100   231.81698     -4337.7323      21.274935     -4316.4573     -4150.7828     -4337.7323      0              33.179988    
      2200   257.5281      -4357.8889      23.634565     -4334.2543     -4191.4817     -4357.8889      0              28.593365    
      2300   299.67121     -4375.4076      27.502237     -4347.9054     -4199.5402     -4375.4076      0              29.713399    
      2400   274.56476     -4385.5244      25.198099     -4360.3263     -4353.3813     -4385.5244      0              1.3908946    
      2500   289.72961     -4395.4623      26.589849     -4368.8725     -4341.5691     -4395.4623      0              5.468109     
      2600   310.4197      -4405.6838      28.488676     -4377.1951     -4418.4563     -4405.6838      0             -8.2634604    
      2700   278.10136     -4411.4343      25.52267      -4385.9116     -4370.0059     -4411.4343      0              3.185474     
      2800   263.06272     -4414.2168      24.142503     -4390.0743     -4432.8848     -4414.2168      0             -8.573741     
      2900   299.62868     -4416.9207      27.498334     -4389.4223     -4339.2295     -4416.9207      0              10.052221    
      3000   327.86967     -4419.5865      30.090142     -4389.4964     -4428.5267     -4419.5865      0             -7.8166887    
      3100   335.07025     -4426.6778      30.750973     -4395.9268     -4382.3839     -4426.6778      0              2.7122801    
      3200   284.48742     -4432.6415      26.108748     -4406.5328     -4386.0799     -4432.6415      0              4.0961494    
      3300   266.32975     -4438.4772      24.442334     -4414.0349     -4400.8595     -4438.4772      0              2.6386722    
      3400   280.96276     -4442.9859      25.785274     -4417.2006     -4406.2719     -4442.9859      0              2.1887056    
      3500   286.4382      -4442.9107      26.287781     -4416.6229     -4421.7921     -4442.9107      0             -1.0352369    
      3600   306.37404     -4441.2977      28.117386     -4413.1803     -4369.8607     -4441.2977      0              8.6757149    
      3700   340.77801     -4442.7268      31.274801     -4411.452      -4430.9343     -4442.7268      0             -3.9017709    
      3800   303.384       -4444.3715      27.842977     -4416.5285     -4385.2619     -4444.3715      0              6.2618209    
      3900   289.46933     -4448.8068      26.565961     -4422.2409     -4417.6422     -4448.8068      0              0.9209777    
      4000   285.8325      -4451.8748      26.232193     -4425.6426     -4487.0895     -4451.8748      0             -12.306099    
      4100   289.24705     -4452.6112      26.545562     -4426.0656     -4472.3172     -4452.6112      0             -9.2628912    
      4200   303.11505     -4452.3538      27.818293     -4424.5355     -4449.7314     -4452.3538      0             -5.0460327    
      4300   322.38049     -4453.3817      29.586373     -4423.7953     -4435.1043     -4453.3817      0             -2.2648776    
      4400   304.55219     -4453.5855      27.950187     -4425.6354     -4486.3629     -4453.5855      0             -12.162025    
      4500   307.20726     -4456.9204      28.193855     -4428.7265     -4450.449      -4456.9204      0             -4.3504016    
      4600   285.00651     -4458.257       26.156387     -4432.1006     -4462.3576     -4458.257       0             -6.0596252    
      4700   278.07668     -4459.4404      25.520405     -4433.92       -4428.5702     -4459.4404      0              1.0714234    
      4800   300.20269     -4461.1081      27.551013     -4433.5571     -4375.0797     -4461.1081      0              11.711382    
      4900   300.22309     -4460.5603      27.552885     -4433.0074     -4425.6938     -4460.5603      0              1.4647078    
      5000   305.19111     -4461.1479      28.008823     -4433.139      -4439.7198     -4461.1479      0             -1.3179509    
      5100   290.1989      -4461.566       26.632918     -4434.9331     -4404.6258     -4461.566       0              6.06969      
      5200   306.53037     -4465.334       28.131734     -4437.2022     -4445.4752     -4465.334       0             -1.6568419    
      5300   289.17685     -4465.7626      26.539119     -4439.2235     -4403.0184     -4465.7626      0              7.2508754    
      5400   285.87667     -4465.5322      26.236246     -4439.296      -4482.1509     -4465.5322      0             -8.5826491    
      5500   304.97401     -4464.8942      27.988899     -4436.9053     -4365.3716     -4464.8942      0              14.326197    
      5600   311.50126     -4462.9319      28.587935     -4434.3439     -4397.1775     -4462.9319      0              7.443394     
      5700   299.0821      -4462.1774      27.44817      -4434.7293     -4389.658      -4462.1774      0              9.0265227    
      5800   308.4751      -4465.1475      28.310211     -4436.8373     -4416.8886     -4465.1475      0              3.9951591    
      5900   294.08179     -4466.8027      26.989269     -4439.8134     -4422.1128     -4466.8027      0              3.5449459    
      6000   280.37534     -4467.5487      25.731363     -4441.8173     -4480.7249     -4467.5487      0             -7.7921034    
      6100   303.28039     -4469.9284      27.833468     -4442.095      -4485.7488     -4469.9284      0             -8.7426358    
      6200   297.24652     -4469.3454      27.279711     -4442.0657     -4447.9368     -4469.3454      0             -1.1758331    
      6300   314.86998     -4470.9883      28.897099     -4442.0912     -4487.8559     -4470.9883      0             -9.1654075    
      6400   290.94339     -4469.7039      26.701243     -4443.0027     -4498.4726     -4469.7039      0             -11.109068    
      6500   295.80339     -4470.177       27.147269     -4443.0297     -4508.6318     -4470.177       0             -13.13826     
      6600   290.75638     -4469.294       26.68408      -4442.6099     -4463.0074     -4469.294       0             -4.0850522    
      6700   305.48012     -4470.5034      28.035347     -4442.4681     -4447.2048     -4470.5034      0             -0.94863988   
      6800   302.06442     -4471.3217      27.721872     -4443.5998     -4489.4969     -4471.3217      0             -9.1919159    
      6900   290.22937     -4471.3562      26.635714     -4444.7204     -4480.3455     -4471.3562      0             -7.1347071    
      7000   295.4516      -4471.5588      27.114983     -4444.4438     -4497.8852     -4471.5588      0             -10.702824    
      7100   311.33339     -4471.8356      28.572529     -4443.2631     -4366.1643     -4471.8356      0              15.440739    
      7200   314.05927     -4472.5045      28.822696     -4443.6818     -4452.6545     -4472.5045      0             -1.7969668    
      7300   305.10673     -4473.9211      28.001079     -4445.92       -4465.4547     -4473.9211      0             -3.9122524    
      7400   291.09983     -4475.5469      26.7156       -4448.8313     -4421.8919     -4475.5469      0              5.3952208    
      7500   280.20552     -4476.1956      25.715779     -4450.4798     -4389.0403     -4476.1956      0              12.304609    
      7600   299.93681     -4477.0581      27.526612     -4449.5315     -4446.5666     -4477.0581      0              0.59377703   
      7700   299.45717     -4475.3257      27.482593     -4447.8432     -4476.0492     -4475.3257      0             -5.6488889    
      7800   314.90127     -4475.555       28.89997      -4446.655      -4448.4495     -4475.555       0             -0.35939326   
      7900   307.79592     -4475.3306      28.247879     -4447.0827     -4413.732      -4475.3306      0              6.6792033    
      8000   287.43687     -4474.7624      26.379434     -4448.383      -4404.1431     -4474.7624      0              8.860021     
      8100   302.00315     -4476.1636      27.716249     -4448.4474     -4445.5286     -4476.1636      0              0.58454021   
      8200   288.74841     -4474.3623      26.4998       -4447.8625     -4457.0185     -4474.3623      0             -1.8336863    
      8300   313.36592     -4475.2663      28.759065     -4446.5072     -4407.6851     -4475.2663      0              7.7749821    
      8400   310.55945     -4476.0265      28.501501     -4447.525      -4434.6283     -4476.0265      0              2.582862     
      8500   296.15237     -4477.9456      27.179296     -4450.7663     -4421.2764     -4477.9456      0              5.9060077    
      8600   278.61973     -4478.5183      25.570243     -4452.9481     -4425.4858     -4478.5183      0              5.4999245    
      8700   291.93404     -4478.5476      26.792159     -4451.7554     -4361.9808     -4478.5476      0              17.979342    
      8800   312.5845      -4477.7164      28.68735      -4449.029      -4431.2013     -4477.7164      0              3.5703936    
      8900   314.80914     -4476.8213      28.891515     -4447.9298     -4387.2911     -4476.8213      0              12.144236    
      9000   311.77706     -4477.7098      28.613247     -4449.0965     -4486.7707     -4477.7098      0             -7.5450937    
      9100   296.61351     -4478.5118      27.221617     -4451.2902     -4495.3045     -4478.5118      0             -8.8148408    
      9200   290.46303     -4479.1562      26.657158     -4452.499      -4461.1255     -4479.1562      0             -1.7276377    
      9300   281.59305     -4478.5079      25.843118     -4452.6648     -4404.0589     -4478.5079      0              9.7344059    
      9400   289.18196     -4477.9133      26.539588     -4451.3737     -4418.2095     -4477.9133      0              6.6418669    
      9500   317.23551     -4478.7063      29.114195     -4449.5921     -4434.3519     -4478.7063      0              3.05217      
      9600   309.56014     -4478.7878      28.409789     -4450.378      -4472.0183     -4478.7878      0             -4.3339477    
      9700   290.11541     -4479.3332      26.625255     -4452.708      -4458.766      -4479.3332      0             -1.2132612    
      9800   283.70661     -4480.4723      26.03709      -4454.4352     -4437.0762     -4480.4723      0              3.4765182    
      9900   296.67115     -4481.8715      27.226906     -4454.6446     -4406.782      -4481.8715      0              9.5855441    
     10000   300.62781     -4481.278       27.590028     -4453.688      -4453.0081     -4481.278       0              0.136163     
Loop time of 93.0114 on 1 procs for 10000 steps with 711 atoms

Performance: 9.289 ns/day, 2.584 hours/ns, 107.514 timesteps/s, 76.442 katom-step/s
99.9% CPU use with 1 MPI tasks x 1 OpenMP threads

MPI task timing breakdown:
Section |  min time  |  avg time  |  max time  |%varavg| %total
---------------------------------------------------------------
Pair    | 92.62      | 92.62      | 92.62      |   0.0 | 99.58
Neigh   | 0.057517   | 0.057517   | 0.057517   |   0.0 |  0.06
Comm    | 0.008017   | 0.008017   | 0.008017   |   0.0 |  0.01
Output  | 0.040507   | 0.040507   | 0.040507   |   0.0 |  0.04
Modify  | 0.25333    | 0.25333    | 0.25333    |   0.0 |  0.27
Other   |            | 0.03247    |            |       |  0.03

Nlocal:            711 ave         711 max         711 min
Histogram: 1 0 0 0 0 0 0 0 0 0
Nghost:              0 ave           0 max           0 min
Histogram: 1 0 0 0 0 0 0 0 0 0
Neighs:              0 ave           0 max           0 min
Histogram: 1 0 0 0 0 0 0 0 0 0
FullNghs:        14810 ave       14810 max       14810 min
Histogram: 1 0 0 0 0 0 0 0 0 0

Total # of neighbors = 14810
Ave neighs/atom = 20.829817
Neighbor list builds = 41
Dangerous builds = 0

print "All done!"
All done!
Total wall time: 0:01:33
