LAMMPS (2 Aug 2023 - Update 2)
OMP_NUM_THREADS environment is not set. Defaulting to 1 thread. (src/comm.cpp:98)
  using 1 OpenMP thread(s) per MPI task
Loaded 1 plugins from C:\Program Files\LAMMPS 64-bit 2Aug2023 with GUI\plugins
# Initialization

units		  metal
dimension 	      3
boundary	  f f f
atom_style	 atomic


# Atom Definition

read_data atom_definition.txt
Reading data file ...
  orthogonal box = (-0 -0 -0) to (200 200 200)
  1 by 1 by 1 MPI processor grid
  reading atoms ...
  711 atoms
  read_data CPU = 0.004 seconds


# Settings

pair_style meam/c
pair_coeff	* * library.meam Au NULL Au
Reading MEAM library file library.meam with DATE: 2012-06-29


timestep         0.001
velocity         all create 300 1551 mom yes rot yes dist gaussian
fix              2 all nvt temp 300 300 $(100.0*dt) drag 0.0 tchain 1
fix              2 all nvt temp 300 300 0.10000000000000000555 drag 0.0 tchain 1
fix              3 all recenter INIT INIT INIT

thermo_style custom step temp pe ke etotal enthalpy epair emol press
thermo 100


# Run a simulation

run              10000
Neighbor list info ...
  update: every = 1 steps, delay = 0 steps, check = yes
  max neighbors/atom: 2000, page size: 100000
  master list distance cutoff = 6
  ghost atom cutoff = 6
  binsize = 3, bins = 67 67 67
  2 neighbor lists, perpetual/occasional/extra = 2 0 0
  (1) pair meam/c, perpetual
      attributes: full, newton on
      pair build: full/bin/atomonly
      stencil: full/bin/3d
      bin: standard
  (2) pair meam/c, perpetual, half/full from (1)
      attributes: half, newton on
      pair build: halffull/newton
      stencil: none
      bin: none
Per MPI rank memory allocation (min/avg/max) = 10.3 | 10.3 | 10.3 Mbytes
   Step          Temp          PotEng         KinEng         TotEng        Enthalpy        E_pair         E_mol          Press     
         0   300           -2623.0813      27.532411     -2595.5489     -3028.0881     -2623.0813      0             -86.625522    
       100   185.0664      -2610.7384      16.984414     -2593.754      -2786.2012     -2610.7384      0             -38.541791    
       200   382.69897     -2616.1318      35.122084     -2581.0097     -2525.753      -2616.1318      0              11.066378    
       300   378.97894     -2614.5951      34.78068      -2579.8144     -2419.3642     -2614.5951      0              32.13369     
       400   275.85687     -2613.6763      25.316683     -2588.3596     -2322.8628     -2613.6763      0              53.17159     
       500   246.45179     -2615.0395      22.61804      -2592.4215     -2364.8538     -2615.0395      0              45.575458    
       600   310.55342     -2619.0113      28.500948     -2590.5103     -2446.2901     -2619.0113      0              28.883274    
       700   312.76489     -2617.7464      28.703904     -2589.0425     -2636.1381     -2617.7464      0             -9.4319226    
       800   289.67806     -2615.7897      26.585118     -2589.2046     -2797.8251     -2615.7897      0             -41.780858    
       900   282.6415      -2613.9024      25.93934      -2587.9631     -2828.9013     -2613.9024      0             -48.253197    
      1000   331.17718     -2614.5141      30.393688     -2584.1204     -2779.6144     -2614.5141      0             -39.15199     
      1100   332.98851     -2614.8642      30.559921     -2584.3043     -2612.8267     -2614.8642      0             -5.7122294    
      1200   277.80523     -2615.1838      25.495493     -2589.6883     -2467.6728     -2615.1838      0              24.436283    
      1300   267.57031     -2617.1564      24.556186     -2592.6002     -2443.713      -2617.1564      0              29.817946    
      1400   283.25624     -2617.143       25.995757     -2591.1472     -2476.1524     -2617.143       0              23.030256    
      1500   304.98327     -2614.8144      27.989749     -2586.8246     -2499.1093     -2614.8144      0              17.566941    
      1600   338.60556     -2614.2578      31.075425     -2583.1824     -2548.4965     -2614.2578      0              6.9466128    
      1700   303.32768     -2613.5398      27.837808     -2585.702      -2703.9333     -2613.5398      0             -23.678413    
      1800   284.59899     -2615.8506      26.118987     -2589.7316     -2771.4603     -2615.8506      0             -36.395184    
      1900   295.44899     -2618.5522      27.114743     -2591.4374     -2695.2883     -2618.5522      0             -20.798421    
      2000   291.61589     -2617.831       26.762962     -2591.0681     -2597.842      -2617.831       0             -1.3566217    
      2100   304.34469     -2616.5418      27.931144     -2588.6107     -2516.9607     -2616.5418      0              14.349499    
      2200   304.69316     -2614.5449      27.963124     -2586.5818     -2475.9362     -2614.5449      0              22.15922     
      2300   301.13511     -2613.9819      27.636585     -2586.3453     -2511.3674     -2613.9819      0              15.015987    
      2400   316.65494     -2615.6658      29.060913     -2586.6049     -2527.8055     -2615.6658      0              11.775887    
      2500   303.48633     -2616.7558      27.852368     -2588.9034     -2552.0004     -2616.7558      0              7.3906446    
      2600   276.09637     -2616.9149      25.338663     -2591.5763     -2627.7042     -2616.9149      0             -7.2354228    
      2700   281.33254     -2617.2745      25.819211     -2591.4553     -2705.4002     -2617.2745      0             -22.819968    
      2800   308.32379     -2616.4379      28.296325     -2588.1415     -2682.7048     -2616.4379      0             -18.938375    
      2900   323.20167     -2614.9469      29.661737     -2585.2852     -2589.7881     -2614.9469      0             -0.90179603   
      3000   302.2248      -2614.7297      27.736592     -2586.9931     -2558.9036     -2614.7297      0              5.6255601    
      3100   288.07172     -2616.1799      26.437697     -2589.7422     -2548.3024     -2616.1799      0              8.2992407    
      3200   281.62706     -2616.7871      25.84624      -2590.9409     -2557.3963     -2616.7871      0              6.7180451    
      3300   302.01739     -2617.1671      27.717556     -2589.4495     -2553.0052     -2617.1671      0              7.2987827    
      3400   299.18921     -2615.4958      27.458001     -2588.0378     -2555.7544     -2615.4958      0              6.4654509    
      3500   299.84175     -2615.3598      27.517887     -2587.8419     -2597.3257     -2615.3598      0             -1.8993232    
      3600   296.00553     -2615.448       27.165819     -2588.2822     -2649.1282     -2615.448       0             -12.185759    
      3700   301.02765     -2616.4509      27.626723     -2588.8242     -2654.2621     -2616.4509      0             -13.105374    
      3800   298.26285     -2616.4802      27.372984     -2589.1072     -2598.3816     -2616.4802      0             -1.8574157    
      3900   303.7267      -2617.1131      27.874428     -2589.2386     -2541.5352     -2617.1131      0              9.553674     
      4000   294.67864     -2616.5601      27.044045     -2589.5161     -2559.2021     -2616.5601      0              6.0710376    
      4100   298.40244     -2615.8061      27.385795     -2588.4203     -2581.1741     -2615.8061      0              1.4512274    
      4200   303.45994     -2615.2398      27.849945     -2587.3898     -2568.8245     -2615.2398      0              3.7181069    
      4300   307.39295     -2616.1457      28.210897     -2587.9348     -2571.5162     -2616.1457      0              3.2881769    
      4400   303.30442     -2616.9274      27.835673     -2589.0917     -2598.6417     -2616.9274      0             -1.9125958    
      4500   279.55281     -2615.9975      25.655876     -2590.3417     -2649.5518     -2615.9975      0             -11.858144    
      4600   288.57263     -2615.5268      26.483667     -2589.0431     -2629.136      -2615.5268      0             -8.0294843    
      4700   326.70705     -2616.2018      29.983443     -2586.2183     -2578.012      -2616.2018      0              1.6434971    
      4800   304.68446     -2615.3675      27.962326     -2587.4052     -2547.8389     -2615.3675      0              7.9240081    
      4900   295.17367     -2616.8885      27.089476     -2589.799      -2550.1589     -2616.8885      0              7.9388082    
      5000   290.12818     -2617.7869      26.626427     -2591.1604     -2575.7804     -2617.7869      0              3.0801862    
      5100   290.59544     -2616.9877      26.66931      -2590.3184     -2581.8498     -2616.9877      0              1.6960228    
      5200   306.88232     -2615.9736      28.164034     -2587.8096     -2586.1646     -2615.9736      0              0.32943742   
      5300   313.14125     -2615.2446      28.738445     -2586.5062     -2597.8145     -2615.2446      0             -2.2647344    
      5400   295.35299     -2614.7452      27.105933     -2587.6393     -2648.2581     -2614.7452      0             -12.140249    
      5500   305.82659     -2616.9117      28.067144     -2588.8445     -2641.2382     -2616.9117      0             -10.492993    
      5600   297.02542     -2617.1505      27.25942      -2589.8911     -2590.9026     -2617.1505      0             -0.20257168   
      5700   294.10096     -2616.9764      26.991028     -2589.9853     -2550.3588     -2616.9764      0              7.9360782    
      5800   305.43106     -2616.7422      28.030845     -2588.7113     -2536.9233     -2616.7422      0              10.371689    
      5900   295.25433     -2615.0877      27.096879     -2587.9908     -2582.8978     -2615.0877      0              1.0199757    
      6000   299.26957     -2614.8132      27.465376     -2587.3479     -2576.5491     -2614.8132      0              2.1626802    
      6100   316.11955     -2616.5739      29.011777     -2587.5621     -2563.7782     -2616.5739      0              4.7632553    
      6200   291.99878     -2616.1404      26.798101     -2589.3423     -2607.812      -2616.1404      0             -3.6989644    
      6300   277.0709      -2615.0413      25.4281       -2589.6132     -2633.1615     -2615.0413      0             -8.7215083    
      6400   303.58687     -2616.2053      27.861595     -2588.3437     -2625.7842     -2616.2053      0             -7.4982879    
      6500   314.54085     -2616.4344      28.866893     -2587.5675     -2598.394      -2616.4344      0             -2.168244     
      6600   300.02819     -2615.1837      27.534998     -2587.6487     -2556.5231     -2615.1837      0              6.2335918    
      6700   305.04938     -2615.8407      27.995816     -2587.8448     -2551.688      -2615.8407      0              7.2412085    
      6800   295.14689     -2615.6999      27.087018     -2588.6129     -2583.2389     -2615.6999      0              1.0762509    
      6900   310.98567     -2617.4885      28.540618     -2588.9478     -2584.4859     -2617.4885      0              0.89359452   
      7000   288.74825     -2616.1265      26.499784     -2589.6267     -2596.4835     -2616.1265      0             -1.3732199    
      7100   303.14457     -2616.9161      27.821003     -2589.0951     -2590.6338     -2616.9161      0             -0.3081589    
      7200   302.99351     -2616.4877      27.807139     -2588.6806     -2611.7481     -2616.4877      0             -4.6197825    
      7300   298.97186     -2616.4078      27.438054     -2588.9697     -2623.1949     -2616.4078      0             -6.8543396    
      7400   294.49762     -2616.2673      27.027432     -2589.2399     -2599.0272     -2616.2673      0             -1.960114     
      7500   303.4089      -2616.7262      27.845261     -2588.8809     -2575.5331     -2616.7262      0              2.6731954    
      7600   302.9669      -2616.685       27.804697     -2588.8803     -2561.0638     -2616.685       0              5.5708716    
      7700   301.02175     -2616.8374      27.626182     -2589.2112     -2566.9115     -2616.8374      0              4.4660168    
      7800   289.97546     -2615.8448      26.612411     -2589.2323     -2593.1888     -2615.8448      0             -0.79237478   
      7900   299.76469     -2616.055       27.510815     -2588.5442     -2577.1342     -2616.055       0              2.2850972    
      8000   303.905       -2616.4641      27.890791     -2588.5733     -2587.0592     -2616.4641      0              0.30324062   
      8100   302.51647     -2617.1074      27.763359     -2589.344      -2590.7406     -2617.1074      0             -0.27968375   
      8200   289.30521     -2616.1691      26.5509       -2589.6182     -2610.955      -2616.1691      0             -4.2731741    
      8300   305.44419     -2616.2714      28.03205      -2588.2394     -2604.0361     -2616.2714      0             -3.1636403    
      8400   319.82316     -2617.1342      29.351676     -2587.7825     -2593.6426     -2617.1342      0             -1.1736187    
      8500   299.30021     -2616.7874      27.468188     -2589.3193     -2589.8067     -2616.7874      0             -0.097619097  
      8600   285.31768     -2616.4245      26.184945     -2590.2395     -2583.7719     -2616.4245      0              1.2952943    
      8700   293.85145     -2616.5502      26.968129     -2589.582      -2583.497      -2616.5502      0              1.2186685    
      8800   305.4073      -2615.8451      28.028665     -2587.8164     -2568.6124     -2615.8451      0              3.8460257    
      8900   310.46247     -2615.3032      28.492601     -2586.8106     -2568.2123     -2615.3032      0              3.7247306    
      9000   300.89412     -2615.9405      27.614469     -2588.326      -2601.2505     -2615.9405      0             -2.588407     
      9100   281.82819     -2616.1744      25.864698     -2590.3097     -2606.7006     -2616.1744      0             -3.2826472    
      9200   299.3687      -2617.8097      27.474474     -2590.3352     -2609.573      -2617.8097      0             -3.852789     
      9300   300.00566     -2617.0309      27.53293      -2589.498      -2599.6058     -2617.0309      0             -2.024313     
      9400   286.48781     -2615.0758      26.292334     -2588.7835     -2570.4108     -2615.0758      0              3.6795464    
      9500   313.03269     -2616.6198      28.728482     -2587.8913     -2573.5775     -2616.6198      0              2.8666584    
      9600   298.29669     -2615.3568      27.37609      -2587.9807     -2584.0293     -2615.3568      0              0.79134667   
      9700   303.2618      -2615.7313      27.831761     -2587.8996     -2578.7169     -2615.7313      0              1.8390422    
      9800   297.83836     -2616.2276      27.334027     -2588.8935     -2581.1208     -2616.2276      0              1.5566507    
      9900   296.25138     -2616.6787      27.188382     -2589.4903     -2608.379      -2616.6787      0             -3.782877     
     10000   303.80533     -2616.9303      27.881643     -2589.0486     -2597.4356     -2616.9303      0             -1.679681     
Loop time of 56.5086 on 1 procs for 10000 steps with 711 atoms

Performance: 15.290 ns/day, 1.570 hours/ns, 176.964 timesteps/s, 125.822 katom-step/s
100.0% CPU use with 1 MPI tasks x 1 OpenMP threads

MPI task timing breakdown:
Section |  min time  |  avg time  |  max time  |%varavg| %total
---------------------------------------------------------------
Pair    | 56.168     | 56.168     | 56.168     |   0.0 | 99.40
Neigh   | 0          | 0          | 0          |   0.0 |  0.00
Comm    | 0.00262    | 0.00262    | 0.00262    |   0.0 |  0.00
Output  | 0.044817   | 0.044817   | 0.044817   |   0.0 |  0.08
Modify  | 0.26146    | 0.26146    | 0.26146    |   0.0 |  0.46
Other   |            | 0.03152    |            |       |  0.06

Nlocal:            711 ave         711 max         711 min
Histogram: 1 0 0 0 0 0 0 0 0 0
Nghost:              0 ave           0 max           0 min
Histogram: 1 0 0 0 0 0 0 0 0 0
Neighs:          14616 ave       14616 max       14616 min
Histogram: 1 0 0 0 0 0 0 0 0 0
FullNghs:        29232 ave       29232 max       29232 min
Histogram: 1 0 0 0 0 0 0 0 0 0

Total # of neighbors = 29232
Ave neighs/atom = 41.113924
Neighbor list builds = 0
Dangerous builds = 0

print "All done!"
All done!
Total wall time: 0:00:56
