LAMMPS (2 Aug 2023 - Update 2)
OMP_NUM_THREADS environment is not set. Defaulting to 1 thread. (src/comm.cpp:98)
  using 1 OpenMP thread(s) per MPI task
Loaded 1 plugins from C:\Program Files\LAMMPS 64-bit 2Aug2023 with GUI\plugins
# Initialization

units		  metal
dimension 	      3
boundary	  f f f
atom_style	 atomic


# Atom Definition

read_data atom_definition.txt
Reading data file ...
  orthogonal box = (-0 -0 -0) to (200 200 200)
  1 by 1 by 1 MPI processor grid
  reading atoms ...
  405 atoms
  read_data CPU = 0.002 seconds


# Settings

pair_style mliap model nn Cu.nn.mliap.model descriptor sna Cu.snap.mliap.descriptor
Reading potential file Cu.nn.mliap.model with DATE: 2021-03-03
Reading potential file Cu.snap.mliap.descriptor with DATE: 2021-03-03
SNAP keyword rcutfac 5.0 
SNAP keyword twojmax 6 
SNAP keyword nelems 1 
SNAP keyword elems Cu 
SNAP keyword radelems 0.5 
SNAP keyword welems 1.0 
SNAP keyword rfac0 0.99363 
SNAP keyword rmin0 0 
SNAP keyword bzeroflag 0 
SNAP keyword switchflag 1 
pair_coeff * * Cu


timestep         0.001
velocity         all create 300 1551 mom yes rot yes dist gaussian
fix              2 all nvt temp 300 300 $(100.0*dt) drag 0.0 tchain 1
fix              2 all nvt temp 300 300 0.10000000000000000555 drag 0.0 tchain 1
fix              3 all recenter INIT INIT INIT

thermo_style custom step temp pe ke etotal enthalpy epair emol press
thermo 100


# Run a simulation

run              10000
Neighbor list info ...
  update: every = 1 steps, delay = 0 steps, check = yes
  max neighbors/atom: 2000, page size: 100000
  master list distance cutoff = 7
  ghost atom cutoff = 7
  binsize = 3.5, bins = 58 58 58
  1 neighbor lists, perpetual/occasional/extra = 1 0 0
  (1) pair mliap, perpetual
      attributes: full, newton on
      pair build: full/bin/atomonly
      stencil: full/bin/3d
      bin: standard
Per MPI rank memory allocation (min/avg/max) = 31.25 | 31.25 | 31.25 Mbytes
   Step          Temp          PotEng         KinEng         TotEng        Enthalpy        E_pair         E_mol          Press     
         0   300           -1337.8642      15.66633      -1322.1979     -2590.2792     -1337.8642      0             -253.96126    
       100   843.22616     -1494.9327      44.034196     -1450.8985     -1745.1871     -1494.9327      0             -58.937788    
       200   144.09726     -1560.4443      7.5249171     -1552.9193     -1720.927      -1560.4443      0             -33.647236    
       300   78.895921     -1583.0838      4.1200317     -1578.9638     -1680.1971     -1583.0838      0             -20.274209    
       400   56.875732     -1593.3827      2.9701132     -1590.4125     -1626.0879     -1593.3827      0             -7.1447767    
       500   53.120117     -1597.8837      2.7739909     -1595.1097     -1584.8648     -1597.8837      0              2.0517785    
       600   104.80103     -1600.4951      5.4728251     -1595.0223     -1564.347      -1600.4951      0              6.1433943    
       700   310.17086     -1599.3759      16.197463     -1583.1784     -1558.9375     -1599.3759      0              4.8547787    
       800   535.62161     -1587.3798      27.970749     -1559.4091     -1577.7068     -1587.3798      0             -3.664518     
       900   351.87876     -1584.2758      18.375495     -1565.9003     -1624.3809     -1584.2758      0             -11.71202     
      1000   254.64191     -1591.2807      13.29768      -1577.983      -1623.3181     -1591.2807      0             -9.0793626    
      1100   230.94545     -1597.0644      12.060225     -1585.0042     -1593.9015     -1597.0644      0             -1.7818692    
      1200   231.7147      -1598.2766      12.100396     -1586.1762     -1545.9564     -1598.2766      0              8.054889     
      1300   301.73179     -1597.4156      15.756766     -1581.6588     -1549.5702     -1597.4156      0              6.4264582    
      1400   347.7654      -1594           18.160691     -1575.8393     -1577.097      -1594           0             -0.25189026   
      1500   357.70442     -1594.2036      18.679718     -1575.5238     -1605.8836     -1594.2036      0             -6.080207     
      1600   282.93966     -1594.935       14.77542      -1580.1595     -1606.2313     -1594.935       0             -5.2214484    
      1700   265.91445     -1597.2996      13.886345     -1583.4132     -1579.1196     -1597.2996      0              0.85989486   
      1800   283.28662     -1598.412       14.793539     -1583.6184     -1567.3679     -1598.412       0              3.2545249    
      1900   308.52025     -1598.1446      16.111266     -1582.0334     -1576.2516     -1598.1446      0              1.1579176    
      2000   316.58667     -1597.39        16.532504     -1580.8575     -1582.8056     -1597.39        0             -0.39015015   
      2100   299.16718     -1596.674       15.622839     -1581.0511     -1595.1322     -1596.674       0             -2.8200424    
      2200   319.37652     -1597.7513      16.678193     -1581.0731     -1585.5329     -1597.7513      0             -0.89317264   
      2300   292.27789     -1597.1062      15.263073     -1581.8432     -1574.5189     -1597.1062      0              1.4668466    
      2400   294.09264     -1597.7736      15.357841     -1582.4158     -1574.7181     -1597.7736      0              1.5416402    
      2500   314.02381     -1598.5055      16.398668     -1582.1068     -1580.9285     -1598.5055      0              0.23597255   
      2600   304.31441     -1597.8932      15.891633     -1582.0016     -1591.3422     -1597.8932      0             -1.8706717    
      2700   313.90996     -1598.2071      16.392723     -1581.8144     -1589.738      -1598.2071      0             -1.5868699    
      2800   312.69906     -1598.476       16.329489     -1582.1465     -1578.1496     -1598.476       0              0.80047928   
      2900   293.37982     -1598.1032      15.320617     -1582.7826     -1569.1072     -1598.1032      0              2.7387876    
      3000   303.38814     -1598.8467      15.843262     -1583.0034     -1581.7856     -1598.8467      0              0.2438854    
      3100   298.38557     -1599.0263      15.582022     -1583.4442     -1595.6844     -1599.0263      0             -2.4513619    
      3200   297.1583      -1599.2569      15.517933     -1583.7389     -1581.1641     -1599.2569      0              0.51566604   
      3300   297.73045     -1599.0226      15.547811     -1583.4748     -1581.4921     -1599.0226      0              0.39709228   
      3400   296.13526     -1598.9236      15.464509     -1583.4591     -1595.2882     -1598.9236      0             -2.3690395    
      3500   298.44265     -1599.4348      15.585003     -1583.8498     -1578.0241     -1599.4348      0              1.1667367    
      3600   300.77836     -1600.102       15.706976     -1584.395      -1578.4543     -1600.102       0              1.1897646    
      3700   301.50923     -1601.143       15.745143     -1585.3979     -1573.2204     -1601.143       0              2.4388088    
      3800   290.17299     -1601.5836      15.153152     -1586.4305     -1586.0278     -1601.5836      0              0.080648648  
      3900   277.77366     -1601.1854      14.505646     -1586.6797     -1594.1519     -1601.1854      0             -1.4964665    
      4000   307.03804     -1601.5058      16.033864     -1585.4719     -1597.2956     -1601.5058      0             -2.3679555    
      4100   321.02792     -1600.9705      16.764431     -1584.2061     -1593.41       -1600.9705      0             -1.8432893    
      4200   313.33811     -1600.6792      16.36286      -1584.3163     -1580.6103     -1600.6792      0              0.74221383   
      4300   309.6057      -1601.9946      16.16795      -1585.8267     -1571.626      -1601.9946      0              2.843993     
      4400   295.25755     -1603.4255      15.418674     -1588.0069     -1576.7118     -1603.4255      0              2.2620937    
      4500   272.21087     -1604.0525      14.21515      -1589.8373     -1598.8561     -1604.0525      0             -1.8062153    
      4600   282.31034     -1604.3843      14.742556     -1589.6417     -1595.2683     -1604.3843      0             -1.1268395    
      4700   284.59507     -1602.5634      14.861867     -1587.7015     -1596.758      -1602.5634      0             -1.8137642    
      4800   335.88174     -1603.0726      17.540113     -1585.5324     -1575.0951     -1603.0726      0              2.0903014    
      4900   308.60933     -1602.5017      16.115918     -1586.3858     -1583.2735     -1602.5017      0              0.62330194   
      5000   289.05405     -1604.3357      15.09472      -1589.241      -1586.5201     -1604.3357      0              0.54492291   
      5100   276.21531     -1605.9132      14.424267     -1591.489      -1596.5566     -1605.9132      0             -1.0149094    
      5200   275.61988     -1606.0288      14.393173     -1591.6356     -1588.003      -1606.0288      0              0.72751502   
      5300   293.99588     -1605.0326      15.352788     -1589.6798     -1593.4189     -1605.0326      0             -0.74883113   
      5400   328.77935     -1604.641       17.169219     -1587.4718     -1580.7437     -1604.641       0              1.3474317    
      5500   330.28254     -1605.0844      17.247717     -1587.8366     -1587.003      -1605.0844      0              0.16695172   
      5600   294.71071     -1605.6914      15.390117     -1590.3013     -1592.764      -1605.6914      0             -0.49322059   
      5700   281.25653     -1607.0341      14.687525     -1592.3465     -1595.2107     -1607.0341      0             -0.5736118    
      5800   283.56488     -1607.1987      14.80807      -1592.3906     -1591.3552     -1607.1987      0              0.20736594   
      5900   315.95926     -1607.521       16.49974      -1591.0212     -1592.0758     -1607.521       0             -0.21119602   
      6000   316.12831     -1606.4141      16.508567     -1589.9056     -1583.3324     -1606.4141      0              1.316412     
      6100   326.31467     -1606.9711      17.04051      -1589.9306     -1598.1022     -1606.9711      0             -1.6365444    
      6200   318.82067     -1609.1595      16.649166     -1592.5103     -1582.9262     -1609.1595      0              1.9194353    
      6300   262.72856     -1609.8326      13.719974     -1596.1126     -1592.6811     -1609.8326      0              0.68723926   
      6400   281.73809     -1611.6002      14.712673     -1596.8875     -1608.5288     -1611.6002      0             -2.3314234    
      6500   309.44148     -1611.9637      16.159374     -1595.8043     -1596.3273     -1611.9637      0             -0.10474027   
      6600   320.33618     -1612.1846      16.728307     -1595.4563     -1590.1391     -1612.1846      0              1.0648688    
      6700   320.05606     -1613.3126      16.713679     -1596.5989     -1590.5949     -1613.3126      0              1.2024456    
      6800   282.94707     -1612.9099      14.775807     -1598.134      -1601.4577     -1612.9099      0             -0.66563003   
      6900   298.4234      -1614.0635      15.583998     -1598.4795     -1610.0055     -1614.0635      0             -2.3083408    
      7000   294.6281      -1614.166       15.385803     -1598.7802     -1607.4892     -1614.166       0             -1.7441717    
      7100   287.36764     -1613.7098      15.006654     -1598.7031     -1593.6522     -1613.7098      0              1.011549     
      7200   308.77785     -1614.9903      16.124718     -1598.8655     -1591.8954     -1614.9903      0              1.3959306    
      7300   300.65153     -1615.327       15.700353     -1599.6267     -1592.7567     -1615.327       0              1.3758526    
      7400   284.83202     -1614.9684      14.874241     -1600.0942     -1597.4025     -1614.9684      0              0.53907581   
      7500   282.25454     -1614.6441      14.739642     -1599.9045     -1601.6115     -1614.6441      0             -0.34186495   
      7600   282.03989     -1613.7332      14.728433     -1599.0048     -1609.6689     -1613.7332      0             -2.1357249    
      7700   311.01873     -1614.9706      16.24174      -1598.7288     -1595.3947     -1614.9706      0              0.66774408   
      7800   296.91838     -1615.6341      15.505404     -1600.1287     -1591.4924     -1615.6341      0              1.729604     
      7900   271.18101     -1615.8883      14.16137      -1601.7269     -1597.967      -1615.8883      0              0.75299923   
      8000   276.77815     -1616.4875      14.453659     -1602.0338     -1610.0033     -1616.4875      0             -1.5960744    
      8100   310.38765     -1616.8265      16.208784     -1600.6177     -1596.0194     -1616.8265      0              0.92091616   
      8200   311.3517      -1615.2143      16.259128     -1598.9552     -1607.4022     -1615.2143      0             -1.6916987    
      8300   308.14317     -1614.3085      16.091575     -1598.2169     -1609.4722     -1614.3085      0             -2.2541147    
      8400   306.74754     -1615.1947      16.018693     -1599.176      -1599.3564     -1615.1947      0             -0.03612952   
      8500   296.70515     -1616.8318      15.494269     -1601.3375     -1607.0544     -1616.8318      0             -1.1449225    
      8600   303.82858     -1618.9996      15.866262     -1603.1334     -1597.0282     -1618.9996      0              1.2226925    
      8700   264.81649     -1617.787       13.829008     -1603.958      -1597.1291     -1617.787       0              1.3676436    
      8800   289.8247      -1616.9795      15.134964     -1601.8445     -1591.2404     -1616.9795      0              2.1237101    
      8900   327.01455     -1615.4308      17.077059     -1598.3538     -1605.0295     -1615.4308      0             -1.3369587    
      9000   336.9847      -1614.8327      17.597711     -1597.235      -1609.2677     -1614.8327      0             -2.4098231    
      9100   301.98557     -1615.5302      15.770018     -1599.7602     -1615.1804     -1615.5302      0             -3.0882384    
      9200   288.04172     -1617.8075      15.041855     -1602.7657     -1604.8279     -1617.8075      0             -0.41300214   
      9300   270.8919      -1618.1315      14.146273     -1603.9853     -1607.6211     -1618.1315      0             -0.7281507    
      9400   298.63588     -1618.4452      15.595094     -1602.8501     -1592.573      -1618.4452      0              2.0582156    
      9500   315.59194     -1617.4275      16.480558     -1600.947      -1582.1542     -1617.4275      0              3.763664     
      9600   313.38302     -1616.2905      16.365206     -1599.9252     -1589.8478     -1616.2905      0              2.0182362    
      9700   319.42424     -1616.8797      16.680685     -1600.199      -1608.3484     -1616.8797      0             -1.6321056    
      9800   292.8553      -1617.3481      15.293226     -1602.0549     -1621.0557     -1617.3481      0             -3.8053202    
      9900   275.45547     -1617.5996      14.384587     -1603.215      -1608.476      -1617.5996      0             -1.0536247    
     10000   279.75126     -1617.5802      14.608918     -1602.9713     -1602.6707     -1617.5802      0              0.060193759  
Loop time of 814.407 on 1 procs for 10000 steps with 405 atoms

Performance: 1.061 ns/day, 22.622 hours/ns, 12.279 timesteps/s, 4.973 katom-step/s
100.0% CPU use with 1 MPI tasks x 1 OpenMP threads

MPI task timing breakdown:
Section |  min time  |  avg time  |  max time  |%varavg| %total
---------------------------------------------------------------
Pair    | 814.13     | 814.13     | 814.13     |   0.0 | 99.97
Neigh   | 0.049218   | 0.049218   | 0.049218   |   0.0 |  0.01
Comm    | 0.006378   | 0.006378   | 0.006378   |   0.0 |  0.00
Output  | 0.041904   | 0.041904   | 0.041904   |   0.0 |  0.01
Modify  | 0.15614    | 0.15614    | 0.15614    |   0.0 |  0.02
Other   |            | 0.0234     |            |       |  0.00

Nlocal:            405 ave         405 max         405 min
Histogram: 1 0 0 0 0 0 0 0 0 0
Nghost:              0 ave           0 max           0 min
Histogram: 1 0 0 0 0 0 0 0 0 0
Neighs:              0 ave           0 max           0 min
Histogram: 1 0 0 0 0 0 0 0 0 0
FullNghs:        24664 ave       24664 max       24664 min
Histogram: 1 0 0 0 0 0 0 0 0 0

Total # of neighbors = 24664
Ave neighs/atom = 60.898765
Neighbor list builds = 48
Dangerous builds = 0

print "All done!"
All done!
Total wall time: 0:13:34
