LAMMPS (2 Aug 2023 - Update 2)
OMP_NUM_THREADS environment is not set. Defaulting to 1 thread. (src/comm.cpp:98)
  using 1 OpenMP thread(s) per MPI task
Loaded 1 plugins from C:\Program Files\LAMMPS 64-bit 2Aug2023 with GUI\plugins
# Initialization

units		  metal
dimension 	      3
boundary	  f f f
atom_style	 atomic


# Atom Definition

read_data atom_definition.txt
Reading data file ...
  orthogonal box = (-0 -0 -0) to (200 200 200)
  1 by 1 by 1 MPI processor grid
  reading atoms ...
  1139 atoms
  read_data CPU = 0.010 seconds


# Settings

pair_style meam/c
pair_coeff	* * Au-Lee.meam Au Au-Lee-para.meam Au


timestep         0.001
velocity         all create 300 1551 mom yes rot yes dist gaussian
fix              2 all nvt temp 300 300 $(100.0*dt) drag 0.0 tchain 1
fix              2 all nvt temp 300 300 0.10000000000000000555 drag 0.0 tchain 1
fix              3 all recenter INIT INIT INIT

thermo_style custom step temp pe ke etotal enthalpy epair emol press
thermo 100


# Run a simulation

run              10000
Neighbor list info ...
  update: every = 1 steps, delay = 0 steps, check = yes
  max neighbors/atom: 2000, page size: 100000
  master list distance cutoff = 6.8
  ghost atom cutoff = 6.8
  binsize = 3.4, bins = 59 59 59
  2 neighbor lists, perpetual/occasional/extra = 2 0 0
  (1) pair meam/c, perpetual
      attributes: full, newton on
      pair build: full/bin/atomonly
      stencil: full/bin/3d
      bin: standard
  (2) pair meam/c, perpetual, half/full from (1)
      attributes: half, newton on
      pair build: halffull/newton
      stencil: none
      bin: none
Per MPI rank memory allocation (min/avg/max) = 10.33 | 10.33 | 10.33 Mbytes
   Step          Temp          PotEng         KinEng         TotEng        Enthalpy        E_pair         E_mol          Press     
         0   300           -4225.8611      44.129414     -4181.7316     -4844.1694     -4225.8611      0             -132.66777    
       100   146.33299     -4200.0741      21.525297     -4178.5488     -4232.0284     -4200.0741      0             -10.71047     
       200   365.38517     -4203.2454      53.747445     -4149.4979     -4047.3969     -4203.2454      0              20.447977    
       300   450.28938     -4189.7799      66.236687     -4123.5432     -3906.3433     -4189.7799      0              43.499072    
       400   332.17945     -4185.3589      48.862947     -4136.496      -3764.3931     -4185.3589      0              74.521813    
       500   265.57248     -4199.8214      39.065193     -4160.7562     -3927.8442     -4199.8214      0              46.64578     
       600   253.34991     -4213.3783      37.267276     -4176.111      -4011.6735     -4213.3783      0              32.932238    
       700   243.84215     -4215.2706      35.868703     -4179.4019     -4118.4918     -4215.2706      0              12.198598    
       800   269.31663     -4208.8792      39.61595      -4169.2632     -4222.2139     -4208.8792      0             -10.604551    
       900   336.94426     -4198.5731      49.563843     -4149.0092     -4397.9311     -4198.5731      0             -49.852104    
      1000   322.87815     -4182.1534      47.494745     -4134.6587     -4500.1404     -4182.1534      0             -73.195775    
      1100   346.73922     -4182.0103      51.004661     -4131.0056     -4452.2137     -4182.0103      0             -64.328997    
      1200   330.55008     -4192.5567      48.623271     -4143.9334     -4365.7933     -4192.5567      0             -44.432344    
      1300   278.82083     -4203.5277      41.013998     -4162.5137     -4188.6795     -4203.5277      0             -5.2402781    
      1400   263.66711     -4213.0694      38.784917     -4174.2845     -4109.7104     -4213.0694      0              12.932383    
      1500   248.08314     -4212.4278      36.492545     -4175.9352     -4094.5741     -4212.4278      0              16.294363    
      1600   274.19953     -4205.5625      40.334215     -4165.2283     -4000.8438     -4205.5625      0              32.921624    
      1700   353.89068     -4198.0836      52.056627     -4146.027      -3832.2135     -4198.0836      0              62.84807     
      1800   373.08609     -4193.8276      54.880235     -4138.9474     -3837.4279     -4193.8276      0              60.38593     
      1900   305.84045     -4197.734       44.988532     -4152.7455     -4124.8568     -4197.734       0              5.5853175    
      2000   256.29159     -4204.9108      37.699992     -4167.2108     -4360.224      -4204.9108      0             -38.65515     
      2100   245.80809     -4206.1603      36.15789      -4170.0024     -4406.8652     -4206.1603      0             -47.437002    
      2200   297.19453     -4203.6466      43.716734     -4159.9298     -4318.404      -4203.6466      0             -31.737946    
      2300   331.76459     -4195.6868      48.801923     -4146.8849     -4175.6612     -4195.6868      0             -5.763102     
      2400   358.14855     -4196.5921      52.682952     -4143.9091     -4076.5175     -4196.5921      0              13.49667     
      2500   294.22106     -4199.3018      43.279343     -4156.0224     -4073.6545     -4199.3018      0              16.495999    
      2600   264.08332     -4205.678       38.846141     -4166.8319     -4135.3977     -4205.678       0              6.2953801    
      2700   267.02098     -4207.7092      39.278264     -4168.4309     -4085.9657     -4207.7092      0              16.515486    
      2800   297.60945     -4205.6054      43.777769     -4161.8276     -4034.5065     -4205.6054      0              25.498876    
      2900   317.76671     -4200.6234      46.742862     -4153.8805     -4059.2383     -4200.6234      0              18.954191    
      3000   328.96759     -4199.8052      48.390489     -4151.4147     -4227.7864     -4199.8052      0             -15.295101    
      3100   287.24343     -4197.4328      42.252948     -4155.1799     -4332.0356     -4197.4328      0             -35.419252    
      3200   289.42048     -4198.8369      42.573187     -4156.2637     -4298.459      -4198.8369      0             -28.477741    
      3300   303.88111     -4200.1941      44.700317     -4155.4937     -4195.5533     -4200.1941      0             -8.0228105    
      3400   303.36236     -4200.3755      44.624009     -4155.7515     -4130.0297     -4200.3755      0              5.1513524    
      3500   314.20146     -4203.0659      46.218421     -4156.8474     -4128.1678     -4203.0659      0              5.7437251    
      3600   282.19705     -4202.0144      41.510634     -4160.5038     -4096.2619     -4202.0144      0              12.865856    
      3700   297.22007     -4204.2968      43.720491     -4160.5763     -4098.8037     -4204.2968      0              12.371318    
      3800   299.88201     -4202.7962      44.112058     -4158.6842     -4077.4365     -4202.7962      0              16.271639    
      3900   303.41898     -4201.9932      44.632339     -4157.3609     -4076.401      -4201.9932      0              16.214       
      4000   310.8599      -4202.5977      45.726884     -4156.8708     -4151.965      -4202.5977      0              0.9824901    
      4100   296.4289      -4201.7261      43.604111     -4158.1219     -4264.8009     -4201.7261      0             -21.36481     
      4200   280.74203     -4199.2367      41.296603     -4157.9401     -4323.2203     -4199.2367      0             -33.101015    
      4300   315.46314     -4200.3326      46.404012     -4153.9286     -4229.8666     -4200.3326      0             -15.208269    
      4400   310.59051     -4198.551       45.687256     -4152.8637     -4118.022      -4198.551       0              6.977825     
      4500   312.7824      -4200.951       46.00968      -4154.9413     -4101.524      -4200.951       0              10.697998    
      4600   296.93596     -4203.3814      43.678699     -4159.7027     -4149.0686     -4203.3814      0              2.1297234    
      4700   276.48865     -4203.4511      40.67094      -4162.7802     -4127.5534     -4203.4511      0              7.0549442    
      4800   300.09485     -4204.5258      44.143366     -4160.3824     -4071.0539     -4204.5258      0              17.890006    
      4900   307.26448     -4202.323       45.198004     -4157.1249     -4088.2647     -4202.323       0              13.79079     
      5000   301.02324     -4199.9475      44.279931     -4155.6676     -4117.8352     -4199.9475      0              7.5767591    
      5100   306.37448     -4200.6466      45.067087     -4155.5795     -4227.9572     -4200.6466      0             -14.495234    
      5200   292.74212     -4199.9013      43.061794     -4156.8395     -4286.4189     -4199.9013      0             -25.951141    
      5300   294.3885      -4199.4688      43.303973     -4156.1648     -4256.1328     -4199.4688      0             -20.02079     
      5400   304.56181     -4199.2034      44.800447     -4154.4029     -4176.5319     -4199.2034      0             -4.4318132    
      5500   316.45527     -4201.0725      46.549951     -4154.5226     -4097.1893     -4201.0725      0              11.482263    
      5600   291.83475     -4201.1311      42.928322     -4158.2028     -4116.3021     -4201.1311      0              8.3915409    
      5700   289.45378     -4203.2689      42.578085     -4160.6908     -4154.8198     -4203.2689      0              1.1757994    
      5800   288.99324     -4202.6273      42.51034      -4160.1169     -4116.2907     -4202.6273      0              8.7771669    
      5900   305.80547     -4202.4059      44.983387     -4157.4225     -4073.4693     -4202.4059      0              16.81348     
      6000   311.8529      -4202.2908      45.872953     -4156.4179     -4085.6601     -4202.2908      0              14.170804    
      6100   303.27007     -4202.1988      44.610435     -4157.5883     -4177.1468     -4202.1988      0             -3.9170219    
      6200   292.52857     -4201.5248      43.030381     -4158.4945     -4249.384      -4201.5248      0             -18.20263     
      6300   300.6186      -4201.8746      44.220409     -4157.6542     -4252.6467     -4201.8746      0             -19.024351    
      6400   299.25959     -4200.5727      44.020501     -4156.5522     -4201.1299     -4200.5727      0             -8.9276709    
      6500   309.69644     -4201.1519      45.555741     -4155.5962     -4150.068      -4201.1519      0              1.1071298    
      6600   297.46395     -4200.2851      43.756366     -4156.5287     -4143.9453     -4200.2851      0              2.5201023    
      6700   298.39342     -4201.3576      43.893088     -4157.4645     -4150.4734     -4201.3576      0              1.4001233    
      6800   307.83762     -4203.3799      45.282312     -4158.0976     -4123.4426     -4203.3799      0              6.9404379    
      6900   290.10371     -4201.8382      42.673689     -4159.1645     -4098.9817     -4201.8382      0              12.052931    
      7000   301.27074     -4203.2105      44.316337     -4158.8942     -4095.4788     -4203.2105      0              12.700333    
      7100   302.68383     -4203.4869      44.5242       -4158.9627     -4133.3911     -4203.4869      0              5.1212869    
      7200   290.67773     -4201.1853      42.758125     -4158.4272     -4195.1722     -4201.1853      0             -7.3589976    
      7300   298.00562     -4199.3276      43.836044     -4155.4915     -4231.6446     -4199.3276      0             -15.251326    
      7400   310.8099      -4198.4561      45.719528     -4152.7366     -4199.2447     -4198.4561      0             -9.3142684    
      7500   312.11766     -4198.7623      45.911898     -4152.8504     -4158.5821     -4198.7623      0             -1.14791      
      7600   301.78341     -4200.6204      44.391749     -4156.2287     -4166.1726     -4200.6204      0             -1.9914932    
      7700   296.49906     -4203.6253      43.614433     -4160.0109     -4179.0138     -4203.6253      0             -3.8057392    
      7800   287.90771     -4203.7355      42.350661     -4161.3848     -4169.2273     -4203.7355      0             -1.5706364    
      7900   297.60014     -4203.1606      43.776399     -4159.3842     -4127.6677     -4203.1606      0              6.3519141    
      8000   299.96576     -4200.7759      44.124377     -4156.6515     -4085.3621     -4200.7759      0              14.27729     
      8100   309.54135     -4200.8497      45.532927     -4155.3168     -4096.4615     -4200.8497      0              11.787067    
      8200   307.13355     -4202.0231      45.178744     -4156.8443     -4129.8188     -4202.0231      0              5.4124574    
      8300   291.37863     -4202.1491      42.861227     -4159.2878     -4206.3479     -4202.1491      0             -9.4248076    
      8400   291.05957     -4202.2715      42.814293     -4159.4572     -4230.0711     -4202.2715      0             -14.141991    
      8500   300.46051     -4201.7867      44.197154     -4157.5895     -4196.8522     -4201.7867      0             -7.8632072    
      8600   299.01185     -4199.2956      43.984059     -4155.3116     -4154.1472     -4199.2956      0              0.23319782   
      8700   322.14528     -4200.9979      47.386941     -4153.611      -4160.2045     -4200.9979      0             -1.3205085    
      8800   291.14576     -4199.1083      42.826971     -4156.2813     -4142.7866     -4199.1083      0              2.7026065    
      8900   304.94346     -4203.1808      44.856587     -4158.3242     -4159.7624     -4203.1808      0             -0.28803255   
      9000   295.12116     -4204.079       43.411746     -4160.6673     -4131.187      -4204.079       0              5.9040705    
      9100   283.8166      -4203.1645      41.748867     -4161.4157     -4108.7317     -4203.1645      0              10.551123    
      9200   302.12853     -4203.2297      44.442515     -4158.7872     -4121.5789     -4203.2297      0              7.4517897    
      9300   306.70487     -4201.4437      45.115687     -4156.328      -4164.4193     -4201.4437      0             -1.6204615    
      9400   296.0314      -4198.5798      43.54564      -4155.0341     -4198.1613     -4198.5798      0             -8.6371704    
      9500   315.58542     -4200.3337      46.421998     -4153.9117     -4182.7321     -4200.3337      0             -5.7719231    
      9600   295.48736     -4199.7262      43.465613     -4156.2606     -4176.2449     -4199.7262      0             -4.0023066    
      9700   293.87136     -4201.5569      43.227903     -4158.329      -4189.3998     -4201.5569      0             -6.2226237    
      9800   294.56453     -4201.9286      43.329866     -4158.5987     -4183.4126     -4201.9286      0             -4.9695253    
      9900   311.20402     -4202.4938      45.777503     -4156.7163     -4156.4761     -4202.4938      0              0.048104894  
     10000   297.62345     -4200.7116      43.779828     -4156.9318     -4116.0964     -4200.7116      0              8.1781871    
Loop time of 138.196 on 1 procs for 10000 steps with 1139 atoms

Performance: 6.252 ns/day, 3.839 hours/ns, 72.361 timesteps/s, 82.419 katom-step/s
99.9% CPU use with 1 MPI tasks x 1 OpenMP threads

MPI task timing breakdown:
Section |  min time  |  avg time  |  max time  |%varavg| %total
---------------------------------------------------------------
Pair    | 137.52     | 137.52     | 137.52     |   0.0 | 99.51
Neigh   | 0          | 0          | 0          |   0.0 |  0.00
Comm    | 0.008393   | 0.008393   | 0.008393   |   0.0 |  0.01
Output  | 0.042825   | 0.042825   | 0.042825   |   0.0 |  0.03
Modify  | 0.53727    | 0.53727    | 0.53727    |   0.0 |  0.39
Other   |            | 0.08228    |            |       |  0.06

Nlocal:           1139 ave        1139 max        1139 min
Histogram: 1 0 0 0 0 0 0 0 0 0
Nghost:              0 ave           0 max           0 min
Histogram: 1 0 0 0 0 0 0 0 0 0
Neighs:          34056 ave       34056 max       34056 min
Histogram: 1 0 0 0 0 0 0 0 0 0
FullNghs:        68112 ave       68112 max       68112 min
Histogram: 1 0 0 0 0 0 0 0 0 0

Total # of neighbors = 68112
Ave neighs/atom = 59.799824
Neighbor list builds = 0
Dangerous builds = 0

print "All done!"
All done!
Total wall time: 0:02:18
