LAMMPS (2 Aug 2023 - Update 2)
OMP_NUM_THREADS environment is not set. Defaulting to 1 thread. (src/comm.cpp:98)
  using 1 OpenMP thread(s) per MPI task
Loaded 1 plugins from C:\Program Files\LAMMPS 64-bit 2Aug2023 with GUI\plugins
# Initialization

units		  metal
dimension 	      3
boundary	  f f f
atom_style	 atomic


# Atom Definition

read_data atom_definition.txt
Reading data file ...
  orthogonal box = (-0 -0 -0) to (200 200 200)
  1 by 1 by 1 MPI processor grid
  reading atoms ...
  1139 atoms
  read_data CPU = 0.007 seconds


# Settings

pair_style tersoff/mod/c
pair_coeff * * Au.tersoff.modc Au


timestep         0.001
velocity         all create 300 1551 mom yes rot yes dist gaussian
fix              2 all nvt temp 300 300 $(100.0*dt) drag 0.0 tchain 1
fix              2 all nvt temp 300 300 0.10000000000000000555 drag 0.0 tchain 1
fix              3 all recenter INIT INIT INIT

thermo_style custom step temp pe ke etotal enthalpy epair emol press
thermo 100


# Run a simulation

run              10000
Neighbor list info ...
  update: every = 1 steps, delay = 0 steps, check = yes
  max neighbors/atom: 2000, page size: 100000
  master list distance cutoff = 5.35
  ghost atom cutoff = 5.35
  binsize = 2.675, bins = 75 75 75
  1 neighbor lists, perpetual/occasional/extra = 1 0 0
  (1) pair tersoff/mod/c, perpetual
      attributes: full, newton on
      pair build: full/bin/atomonly
      stencil: full/bin/3d
      bin: standard
Per MPI rank memory allocation (min/avg/max) = 4.995 | 4.995 | 4.995 Mbytes
   Step          Temp          PotEng         KinEng         TotEng        Enthalpy        E_pair         E_mol          Press     
         0   300           -3734.2175      44.129414     -3690.0881     -6367.2496     -3734.2175      0             -536.16065    
       100   734.52659     -3843.2623      108.04743     -3735.2149     -6000.5164     -3843.2623      0             -453.6766     
       200   301.14964     -3960.525       44.298524     -3916.2265     -5359.3398     -3960.525       0             -289.01527    
       300   162.28868     -4024.2436      23.872348     -4000.3712     -5322.8692     -4024.2436      0             -264.85939    
       400   176.98272     -4070.96        26.033812     -4044.9262     -5165.1522     -4070.96        0             -224.34998    
       500   248.35473     -4114.6165      36.532495     -4078.084      -4918.9813     -4114.6165      0             -168.40823    
       600   302.61356     -4152.8826      44.513863     -4108.3688     -4625.1865     -4152.8826      0             -103.50415    
       700   269.06947     -4177.7407      39.579594     -4138.1611     -4314.1733     -4177.7407      0             -35.250321    
       800   200.48656     -4184.5554      29.491182     -4155.0642     -3993.7949     -4184.5554      0              32.297735    
       900   175.92335     -4176.6704      25.877981     -4150.7924     -3678.479      -4176.6704      0              94.591176    
      1000   305.4449      -4164.0733      44.930348     -4119.143      -3297.8284     -4164.0733      0              164.48637    
      1100   430.69599     -4133.3154      63.354539     -4069.9609     -2996.0713     -4133.3154      0              215.07007    
      1200   485.87897     -4139.7917      71.471846     -4068.3199     -3448.5905     -4139.7917      0              124.11448    
      1300   293.21525     -4167.6397      43.13139      -4124.5083     -4103.1617     -4167.6397      0              4.2751307    
      1400   203.94976     -4192.9504      30.000612     -4162.9498     -4362.1097     -4192.9504      0             -39.886164    
      1500   183.04935     -4202.6055      26.926202     -4175.6793     -4394.7281     -4202.6055      0             -43.869348    
      1600   242.20971     -4202.2841      35.628574     -4166.6555     -4397.9335     -4202.2841      0             -46.31852     
      1700   351.82311     -4190.8754      51.752491     -4139.1229     -4247.2763     -4190.8754      0             -21.660118    
      1800   396.62774     -4179.8896      58.343165     -4121.5464     -4064.3852     -4179.8896      0              11.447788    
      1900   330.20261     -4183.0599      48.572159     -4134.4877     -3956.6526     -4183.0599      0              35.615417    
      2000   299.58948     -4201.6327      44.069027     -4157.5636     -3952.91       -4201.6327      0              40.986409    
      2100   263.19982     -4217.7013      38.716178     -4178.9851     -3963.768      -4217.7013      0              43.101979    
      2200   251.00783     -4227.1297      36.922761     -4190.207      -4152.182      -4227.1297      0              7.6153456    
      2300   250.33259     -4226.1283      36.823435     -4189.3048     -4302.1066     -4226.1283      0             -22.591033    
      2400   295.91923     -4219.3059      43.52914      -4175.7768     -4369.1363     -4219.3059      0             -38.724512    
      2500   346.55912     -4209.9901      50.978169     -4159.012      -4354.0363     -4209.9901      0             -39.057917    
      2600   370.36821     -4212.6301      54.480439     -4158.1497     -4236.3674     -4212.6301      0             -15.664818    
      2700   312.65596     -4223.8744      45.99108      -4177.8834     -4203.0034     -4223.8744      0             -5.0308502    
      2800   257.19114     -4234.7898      37.832313     -4196.9575     -4172.4216     -4234.7898      0              4.9138545    
      2900   245.42535     -4240.3432      36.10159      -4204.2416     -4147.7612     -4240.3432      0              11.311451    
      3000   272.23226     -4239.2111      40.044833     -4199.1662     -4085.5694     -4239.2111      0              22.750267    
      3100   332.29018     -4235.401       48.879235     -4186.5218     -4147.3472     -4235.401       0              7.8455663    
      3200   331.59874     -4228.594       48.777526     -4179.8165     -4179.8138     -4228.594       0              0.00053128535
      3300   330.7444      -4233.9643      48.651854     -4185.3124     -4279.659      -4233.9643      0             -18.894987    
      3400   297.92477     -4242.9868      43.824151     -4199.1626     -4255.0492     -4242.9868      0             -11.19252     
      3500   267.55134     -4249.8109      39.356279     -4210.4547     -4218.5295     -4249.8109      0             -1.6171662    
      3600   264.03776     -4252.2609      38.839439     -4213.4214     -4257.3622     -4252.2609      0             -8.8001094    
      3700   285.52878     -4250.1527      42.000726     -4208.152      -4169.2135     -4250.1527      0              7.7982825    
      3800   324.73238     -4246.4983      47.767498     -4198.7308     -4172.7092     -4246.4983      0              5.2114157    
      3900   331.19682     -4244.771       48.718405     -4196.0526     -4126.2918     -4244.771       0              13.971132    
      4000   317.52528     -4250.3205      46.707348     -4203.6132     -4157.1728     -4250.3205      0              9.3007103    
      4100   276.85408     -4254.6843      40.724694     -4213.9596     -4212.2153     -4254.6843      0              0.34932637   
      4200   267.98015     -4258.0906      39.419356     -4218.6712     -4272.5494     -4258.0906      0             -10.790301    
      4300   290.19736     -4258.4885      42.687464     -4215.801      -4250.865      -4258.4885      0             -7.0223248    
      4400   302.8512      -4253.6035      44.54882      -4209.0547     -4223.0823     -4253.6035      0             -2.8093333    
      4500   335.9555      -4252.9311      49.418397     -4203.5127     -4189.9948     -4252.9311      0              2.7072601    
      4600   317.57833     -4252.4726      46.715151     -4205.7574     -4171.1513     -4252.4726      0              6.9306396    
      4700   291.8552      -4256.4848      42.931329     -4213.5534     -4234.0475     -4256.4848      0             -4.1043936    
      4800   285.6893      -4262.0281      42.024337     -4220.0037     -4214.6456     -4262.0281      0              1.0730829    
      4900   291.26815     -4264.6284      42.844976     -4221.7835     -4247.9248     -4264.6284      0             -5.2353861    
      5000   292.1336      -4262.0661      42.972282     -4219.0939     -4255.5492     -4262.0661      0             -7.3009867    
      5100   312.35346     -4260.0212      45.946583     -4214.0747     -4190.5638     -4260.0212      0              4.7085667    
      5200   319.96347     -4259.7647      47.066        -4212.6987     -4209.8359     -4259.7647      0              0.57334045   
      5300   306.12042     -4262.0444      45.029716     -4217.0147     -4213.4305     -4262.0444      0              0.71779701   
      5400   299.96442     -4267.287       44.12418      -4223.1628     -4184.0602     -4267.287       0              7.8311726    
      5500   287.70257     -4269.1592      42.320486     -4226.8387     -4213.4907     -4269.1592      0              2.6732398    
      5600   292.73774     -4269.6541      43.06115      -4226.593      -4225.2179     -4269.6541      0              0.27538886   
      5700   304.65907     -4268.7361      44.814754     -4223.9213     -4287.8306     -4268.7361      0             -12.799235    
      5800   304.63193     -4266.515       44.810762     -4221.7042     -4256.1039     -4266.515       0             -6.8892923    
      5900   314.93457     -4267.3182      46.326259     -4220.992      -4189.1861     -4267.3182      0              6.3698144    
      6000   308.54482     -4268.5794      45.38634      -4223.193      -4218.9019     -4268.5794      0              0.85939707   
      6100   299.07022     -4270.7846      43.992645     -4226.792      -4217.7154     -4270.7846      0              1.8177886    
      6200   283.20811     -4270.7307      41.659359     -4229.0713     -4177.6825     -4270.7307      0              10.291751    
      6300   297.97505     -4270.6733      43.831547     -4226.8417     -4248.8336     -4270.6733      0             -4.4043624    
      6400   308.572       -4269.7223      45.390338     -4224.3319     -4220.262      -4269.7223      0              0.81510117   
      6500   304.34357     -4269.0689      44.768344     -4224.3005     -4264.2649     -4269.0689      0             -8.0037445    
      6600   316.02531     -4271.9898      46.486705     -4225.5031     -4237.5554     -4271.9898      0             -2.4137433    
      6700   298.40378     -4274.0338      43.894613     -4230.1392     -4233.6686     -4274.0338      0             -0.70684428   
      6800   289.12838     -4275.8836      42.53022      -4233.3534     -4252.8072     -4275.8836      0             -3.8960549    
      6900   294.03309     -4276.404       43.251692     -4233.1523     -4201.5882     -4276.404       0              6.3214081    
      7000   308.35299     -4275.6351      45.358122     -4230.277      -4178.4774     -4275.6351      0              10.374004    
      7100   318.04546     -4274.6029      46.783865     -4227.819      -4224.0286     -4274.6029      0              0.75912658   
      7200   298.91581     -4271.5526      43.969932     -4227.5826     -4220.6547     -4271.5526      0              1.3874787    
      7300   320.10048     -4275.9808      47.086155     -4228.8946     -4250.4011     -4275.9808      0             -4.3071358    
      7400   286.78773     -4275.0725      42.185914     -4232.8866     -4254.4979     -4275.0725      0             -4.3281302    
      7500   305.85996     -4279.6049      44.991402     -4234.6135     -4252.3554     -4279.6049      0             -3.5532173    
      7600   300.06854     -4278.9811      44.139496     -4234.8416     -4243.6945     -4278.9811      0             -1.7729868    
      7700   296.99779     -4277.3663      43.687794     -4233.6785     -4199.9559     -4277.3663      0              6.7536955    
      7800   311.97721     -4277.4388      45.891237     -4231.5476     -4163.7486     -4277.4388      0              13.578227    
      7900   303.3468      -4275.7971      44.621722     -4231.1754     -4238.6581     -4275.7971      0             -1.4985913    
      8000   310.83512     -4277.7765      45.723239     -4232.0533     -4262.5184     -4277.7765      0             -6.1013178    
      8100   291.23964     -4277.9432      42.840782     -4235.1024     -4253.8548     -4277.9432      0             -3.7555934    
      8200   285.6368      -4279.1385      42.016615     -4237.1219     -4248.4046     -4279.1385      0             -2.2596067    
      8300   292.40592     -4279.6029      43.012339     -4236.5906     -4234.5144     -4279.6029      0              0.41580721   
      8400   305.33229     -4279.752       44.913783     -4234.8382     -4235.2061     -4279.752       0             -0.073674878  
      8500   309.63048     -4278.5388      45.546038     -4232.9928     -4162.9074     -4278.5388      0              14.036148    
      8600   299.82908     -4276.7683      44.104271     -4232.664      -4231.8596     -4276.7683      0              0.16109146   
      8700   314.8896      -4279.3176      46.319645     -4232.998      -4199.1907     -4279.3176      0              6.7706533    
      8800   292.108       -4278.0963      42.968515     -4235.1278     -4293.2141     -4278.0963      0             -11.633057    
      8900   295.7631      -4279.6075      43.506173     -4236.1013     -4297.5993     -4279.6075      0             -12.316318    
      9000   301.30631     -4280.1256      44.32157      -4235.804      -4294.9779     -4280.1256      0             -11.850863    
      9100   300.13755     -4279.8483      44.149646     -4235.6987     -4226.2448     -4279.8483      0              1.8933428    
      9200   302.70023     -4279.972       44.526612     -4235.4454     -4213.0146     -4279.972       0              4.4922614    
      9300   298.40514     -4279.7055      43.894812     -4235.8107     -4200.9341     -4279.7055      0              6.9848197    
      9400   294.45377     -4279.7426      43.313573     -4236.429      -4186.221      -4279.7426      0              10.055255    
      9500   308.67921     -4282.315       45.406108     -4236.9089     -4167.7084     -4282.315       0              13.858933    
      9600   294.5218      -4281.7066      43.32358      -4238.383      -4256.9381     -4281.7066      0             -3.7160731    
      9700   297.704       -4282.262       43.791677     -4238.4703     -4264.5259     -4282.262       0             -5.2182202    
      9800   305.91994     -4282.312       45.000225     -4237.3118     -4291.7675     -4282.312       0             -10.905954    
      9900   304.91633     -4280.9298      44.852596     -4236.0772     -4313.2724     -4280.9298      0             -15.460052    
     10000   306.71662     -4281.3596      45.117416     -4236.2422     -4247.7384     -4281.3596      0             -2.3023707    
Loop time of 731.965 on 1 procs for 10000 steps with 1139 atoms

Performance: 1.180 ns/day, 20.332 hours/ns, 13.662 timesteps/s, 15.561 katom-step/s
100.0% CPU use with 1 MPI tasks x 1 OpenMP threads

MPI task timing breakdown:
Section |  min time  |  avg time  |  max time  |%varavg| %total
---------------------------------------------------------------
Pair    | 731.43     | 731.43     | 731.43     |   0.0 | 99.93
Neigh   | 0.030211   | 0.030211   | 0.030211   |   0.0 |  0.00
Comm    | 0.007442   | 0.007442   | 0.007442   |   0.0 |  0.00
Output  | 0.042418   | 0.042418   | 0.042418   |   0.0 |  0.01
Modify  | 0.40257    | 0.40257    | 0.40257    |   0.0 |  0.05
Other   |            | 0.05142    |            |       |  0.01

Nlocal:           1139 ave        1139 max        1139 min
Histogram: 1 0 0 0 0 0 0 0 0 0
Nghost:              0 ave           0 max           0 min
Histogram: 1 0 0 0 0 0 0 0 0 0
Neighs:              0 ave           0 max           0 min
Histogram: 1 0 0 0 0 0 0 0 0 0
FullNghs:        48698 ave       48698 max       48698 min
Histogram: 1 0 0 0 0 0 0 0 0 0

Total # of neighbors = 48698
Ave neighs/atom = 42.755048
Neighbor list builds = 12
Dangerous builds = 0

print "All done!"
All done!
Total wall time: 0:12:12
