LAMMPS (2 Aug 2023 - Update 2)
OMP_NUM_THREADS environment is not set. Defaulting to 1 thread. (src/comm.cpp:98)
  using 1 OpenMP thread(s) per MPI task
Loaded 1 plugins from C:\Program Files\LAMMPS 64-bit 2Aug2023 with GUI\plugins
# Initialization

units		  metal
dimension 	      3
boundary	  f f f
atom_style	 atomic


# Atom Definition

read_data atom_definition.txt
Reading data file ...
  orthogonal box = (-0 -0 -0) to (200 200 200)
  1 by 1 by 1 MPI processor grid
  reading atoms ...
  1139 atoms
  read_data CPU = 0.007 seconds


# Settings

pair_style meam/c
pair_coeff	* * library.meam Au NULL Au
Reading MEAM library file library.meam with DATE: 2012-06-29


timestep         0.001
velocity         all create 300 1551 mom yes rot yes dist gaussian
fix              2 all nvt temp 300 300 $(100.0*dt) drag 0.0 tchain 1
fix              2 all nvt temp 300 300 0.10000000000000000555 drag 0.0 tchain 1
fix              3 all recenter INIT INIT INIT

thermo_style custom step temp pe ke etotal enthalpy epair emol press
thermo 100


# Run a simulation

run              10000
Neighbor list info ...
  update: every = 1 steps, delay = 0 steps, check = yes
  max neighbors/atom: 2000, page size: 100000
  master list distance cutoff = 6
  ghost atom cutoff = 6
  binsize = 3, bins = 67 67 67
  2 neighbor lists, perpetual/occasional/extra = 2 0 0
  (1) pair meam/c, perpetual
      attributes: full, newton on
      pair build: full/bin/atomonly
      stencil: full/bin/3d
      bin: standard
  (2) pair meam/c, perpetual, half/full from (1)
      attributes: half, newton on
      pair build: halffull/newton
      stencil: none
      bin: none
Per MPI rank memory allocation (min/avg/max) = 10.53 | 10.53 | 10.53 Mbytes
   Step          Temp          PotEng         KinEng         TotEng        Enthalpy        E_pair         E_mol          Press     
         0   300           -4238.8546      44.129414     -4194.7252     -4875.0987     -4238.8546      0             -136.2598     
       100   160.12202     -4215.2417      23.553636     -4191.6881     -4535.9107     -4215.2417      0             -68.938159    
       200   395.87223     -4225.2719      58.232031     -4167.0398     -4168.0762     -4225.2719      0             -0.20755041   
       300   396.2254      -4220.4946      58.283982     -4162.2106     -3965.9824     -4220.4946      0              39.29903     
       400   297.46598     -4223.2608      43.756664     -4179.5041     -3805.5884     -4223.2608      0              74.884867    
       500   222.10868     -4224.801       32.671753     -4192.1292     -3796.9954     -4224.801       0              79.13427     
       600   272.88068     -4229.0762      40.140214     -4188.936      -3847.9897     -4229.0762      0              68.282033    
       700   349.06375     -4228.9067      51.346596     -4177.5601     -4020.6754     -4228.9067      0              31.419623    
       800   319.32211     -4222.0302      46.971658     -4175.0585     -4283.4528     -4222.0302      0             -21.708341    
       900   298.65776     -4223.5605      43.931972     -4179.6285     -4499.4979     -4223.5605      0             -64.060888    
      1000   271.0802      -4222.9627      39.875367     -4183.0874     -4633.1776     -4222.9627      0             -90.1405      
      1100   298.14846     -4223.5107      43.857056     -4179.6537     -4571.7686     -4223.5107      0             -78.529662    
      1200   331.98416     -4224.3441      48.834221     -4175.5099     -4347.6495     -4224.3441      0             -34.474759    
      1300   307.59412     -4224.0656      45.246494     -4178.8191     -4044.6855     -4224.0656      0              26.863203    
      1400   278.45826     -4224.7912      40.960665     -4183.8305     -3890.4746     -4224.7912      0              58.750994    
      1500   275.18339     -4224.439       40.478939     -4183.96       -3928.9322     -4224.439       0              51.074955    
      1600   296.57653     -4221.8932      43.625827     -4178.2674     -3985.7421     -4221.8932      0              38.557444    
      1700   344.67993     -4222.8661      50.701744     -4172.1643     -4006.665      -4222.8661      0              33.144901    
      1800   315.12603     -4223.2673      46.354423     -4176.9129     -4094.7389     -4223.2673      0              16.457164    
      1900   272.3352      -4225.0015      40.059975     -4184.9416     -4296.2584     -4225.0015      0             -22.293655    
      2000   282.10123     -4229.0202      41.49654      -4187.5237     -4398.2264     -4229.0202      0             -42.197874    
      2100   286.31024     -4226.9443      42.115676     -4184.8286     -4378.5161     -4226.9443      0             -38.790196    
      2200   313.32931     -4224.8827      46.090129     -4178.7926     -4323.479      -4224.8827      0             -28.976646    
      2300   307.25979     -4221.7715      45.197314     -4176.5741     -4193.8527     -4221.7715      0             -3.4604044    
      2400   305.35655     -4222.5626      44.917351     -4177.6452     -4062.1225     -4222.5626      0              23.135967    
      2500   301.88732     -4224.7866      44.407035     -4180.3796     -4069.794      -4224.7866      0              22.14721     
      2600   289.50427     -4225.5544      42.585512     -4182.9688     -4130.0024     -4225.5544      0              10.607698    
      2700   296.73        -4226.5504      43.648402     -4182.902      -4144.0724     -4226.5504      0              7.7764775    
      2800   302.91127     -4226.2122      44.557655     -4181.6545     -4138.7059     -4226.2122      0              8.6014052    
      2900   302.30418     -4225.3074      44.468354     -4180.839      -4148.5384     -4225.3074      0              6.4689083    
      3000   308.40962     -4226.2613      45.366453     -4180.8948     -4202.2256     -4226.2613      0             -4.2719731    
      3100   297.51665     -4225.4893      43.764117     -4181.7252     -4256.2725     -4225.4893      0             -14.929742    
      3200   305.32617     -4225.9921      44.912883     -4181.0792     -4225.8487     -4225.9921      0             -8.9660769    
      3300   295.53597     -4224.334       43.472763     -4180.8612     -4176.3619     -4224.334       0              0.90108984   
      3400   295.74108     -4223.9073      43.502935     -4180.4044     -4164.5784     -4223.9073      0              3.1695049    
      3500   307.47484     -4223.9313      45.228947     -4178.7024     -4170.0423     -4223.9313      0              1.7343668    
      3600   308.6124      -4222.8735      45.39628      -4177.4772     -4179.6323     -4222.8735      0             -0.43161111   
      3700   297.91706     -4223.5214      43.823017     -4179.6984     -4215.5658     -4223.5214      0             -7.1832374    
      3800   293.36929     -4225.9157      43.154048     -4182.7617     -4238.9941     -4225.9157      0             -11.26178     
      3900   292.54519     -4227.0463      43.032826     -4184.0135     -4157.5619     -4227.0463      0              5.2975267    
      4000   299.253       -4227.1542      44.019532     -4183.1347     -4142.6653     -4227.1542      0              8.1048737    
      4100   303.54947     -4225.4388      44.651533     -4180.7873     -4172.2642     -4225.4388      0              1.7069225    
      4200   300.60484     -4223.4289      44.218384     -4179.2105     -4180.9467     -4223.4289      0             -0.3477076    
      4300   308.29594     -4224.7655      45.34973      -4179.4158     -4148.8414     -4224.7655      0              6.1231967    
      4400   294.13214     -4225.2787      43.266263     -4182.0124     -4117.3267     -4225.2787      0              12.95475     
      4500   284.02943     -4225.0204      41.780174     -4183.2402     -4152.1326     -4225.0204      0              6.229981     
      4600   294.02466     -4224.3801      43.250453     -4181.1297     -4221.1053     -4224.3801      0             -8.0059963    
      4700   319.27072     -4225.5763      46.964099     -4178.6122     -4238.4981     -4225.5763      0             -11.993464    
      4800   312.12916     -4225.3082      45.913589     -4179.3946     -4258.0683     -4225.3082      0             -15.75615     
      4900   293.89433     -4225.3124      43.231282     -4182.0811     -4229.6123     -4225.3124      0             -9.5191699    
      5000   288.23288     -4225.4476      42.398493     -4183.0491     -4192.7776     -4225.4476      0             -1.9483559    
      5100   308.4908      -4226.9401      45.378393     -4181.5617     -4151.8628     -4226.9401      0              5.9478686    
      5200   300.69378     -4225.3244      44.231467     -4181.093      -4155.6933     -4225.3244      0              5.0868528    
      5300   302.0143      -4225.5276      44.425713     -4181.1019     -4170.4952     -4225.5276      0              2.1242285    
      5400   290.29262     -4224.4165      42.701477     -4181.715      -4104.6092     -4224.4165      0              15.442148    
      5500   297.83926     -4224.8404      43.811573     -4181.0288     -4113.9061     -4224.8404      0              13.442802    
      5600   304.03717     -4224.7566      44.723274     -4180.0333     -4129.0029     -4224.7566      0              10.219968    
      5700   302.19362     -4224.7868      44.452091     -4180.3347     -4213.7007     -4224.7868      0             -6.6822753    
      5800   286.44115     -4224.0442      42.134934     -4181.9093     -4279.7388     -4224.0442      0             -19.592519    
      5900   305.32156     -4226.0843      44.912204     -4181.1721     -4235.9725     -4226.0843      0             -10.974996    
      6000   303.12402     -4225.5115      44.588951     -4180.9225     -4215.753      -4225.5115      0             -6.9755727    
      6100   287.54308     -4223.7345      42.297025     -4181.4375     -4203.1063     -4223.7345      0             -4.3396607    
      6200   308.49409     -4225.6915      45.378877     -4180.3126     -4183.4213     -4225.6915      0             -0.62258575   
      6300   299.59487     -4224.4724      44.06982      -4180.4026     -4162.6568     -4224.4724      0              3.5539797    
      6400   303.03683     -4225.1678      44.576125     -4180.5917     -4121.3014     -4225.1678      0              11.874185    
      6500   304.36977     -4225.6813      44.772199     -4180.9091     -4131.2187     -4225.6813      0              9.9516027    
      6600   295.51215     -4224.2433      43.469259     -4180.7741     -4134.7608     -4224.2433      0              9.2151745    
      6700   312.0373      -4225.6046      45.900077     -4179.7046     -4145.8411     -4225.6046      0              6.7819081    
      6800   295.83906     -4224.8049      43.517347     -4181.2875     -4196.3736     -4224.8049      0             -3.0213223    
      6900   289.85121     -4226.1559      42.636547     -4183.5193     -4254.0382     -4226.1559      0             -14.122969    
      7000   289.48224     -4225.9816      42.582271     -4183.3993     -4238.271      -4225.9816      0             -10.989257    
      7100   295.53612     -4225.6057      43.472785     -4182.1329     -4224.4269     -4225.6057      0             -8.4703151    
      7200   303.85606     -4225.0246      44.696633     -4180.328      -4197.3064     -4225.0246      0             -3.4002943    
      7300   314.15724     -4224.9976      46.211916     -4178.7857     -4179.8503     -4224.9976      0             -0.21321563   
      7400   294.98995     -4223.6115      43.392445     -4180.2191     -4157.5665     -4223.6115      0              4.536672     
      7500   303.44089     -4225.9101      44.635562     -4181.2745     -4132.0723     -4225.9101      0              9.8538375    
      7600   292.43758     -4224.6253      43.016997     -4181.6083     -4122.071      -4224.6253      0              11.923648    
      7700   300.87642     -4224.766       44.258333     -4180.5077     -4143.8289     -4224.766       0              7.345742     
      7800   300.59424     -4224.5449      44.216824     -4180.3281     -4176.8189     -4224.5449      0              0.70279941   
      7900   305.61599     -4225.5298      44.955515     -4180.5742     -4207.9116     -4225.5298      0             -5.4749028    
      8000   293.20957     -4224.1401      43.130554     -4181.0095     -4221.9631     -4224.1401      0             -8.2018515    
      8100   304.14765     -4225.403       44.739524     -4180.6635     -4217.3155     -4225.403       0             -7.3403678    
      8200   297.08665     -4224.5549      43.700865     -4180.8541     -4204.8724     -4224.5549      0             -4.8102029    
      8300   305.22431     -4225.8183      44.897899     -4180.9204     -4198.1683     -4225.8183      0             -3.4542683    
      8400   288.12526     -4224.8599      42.382662     -4182.4772     -4194.8365     -4224.8599      0             -2.4752244    
      8500   298.77258     -4225.8241      43.948863     -4181.8752     -4173.5488     -4225.8241      0              1.6675592    
      8600   295.71725     -4224.429       43.499429     -4180.9295     -4147.0645     -4224.429       0              6.7822179    
      8700   305.68243     -4224.9357      44.965288     -4179.9704     -4143.9653     -4224.9357      0              7.210806     
      8800   311.04962     -4225.8082      45.754791     -4180.0534     -4153.8703     -4225.8082      0              5.2437626    
      8900   282.49735     -4224.2304      41.554809     -4182.6756     -4160.6453     -4224.2304      0              4.4120531    
      9000   295.30485     -4226.348       43.438766     -4182.9092     -4202.2698     -4226.348       0             -3.877371     
      9100   298.15126     -4225.1923      43.857467     -4181.3348     -4194.9014     -4225.1923      0             -2.7170188    
      9200   312.24113     -4225.4749      45.930059     -4179.5449     -4193.3486     -4225.4749      0             -2.7645004    
      9300   296.37716     -4223.8289      43.596501     -4180.2324     -4202.5218     -4223.8289      0             -4.46393      
      9400   296.39612     -4225.3054      43.59929      -4181.7061     -4204.8906     -4225.3054      0             -4.6432111    
      9500   294.89691     -4225.6068      43.378758     -4182.228      -4206.5391     -4225.6068      0             -4.8688214    
      9600   307.31393     -4225.64        45.205279     -4180.4347     -4171.2561     -4225.64        0              1.8382245    
      9700   299.45251     -4224.0062      44.048879     -4179.9574     -4159.8369     -4224.0062      0              4.0295651    
      9800   306.43317     -4226.0497      45.07572      -4180.974      -4140.7431     -4226.0497      0              8.0571182    
      9900   294.5475      -4226.0341      43.327362     -4182.7068     -4169.8292     -4226.0341      0              2.5790091    
     10000   293.29121     -4225.7634      43.142563     -4182.6209     -4196.5133     -4225.7634      0             -2.782268     
Loop time of 92.6404 on 1 procs for 10000 steps with 1139 atoms

Performance: 9.326 ns/day, 2.573 hours/ns, 107.944 timesteps/s, 122.949 katom-step/s
99.9% CPU use with 1 MPI tasks x 1 OpenMP threads

MPI task timing breakdown:
Section |  min time  |  avg time  |  max time  |%varavg| %total
---------------------------------------------------------------
Pair    | 92.143     | 92.143     | 92.143     |   0.0 | 99.46
Neigh   | 0          | 0          | 0          |   0.0 |  0.00
Comm    | 0.002806   | 0.002806   | 0.002806   |   0.0 |  0.00
Output  | 0.041857   | 0.041857   | 0.041857   |   0.0 |  0.05
Modify  | 0.4061     | 0.4061     | 0.4061     |   0.0 |  0.44
Other   |            | 0.04683    |            |       |  0.05

Nlocal:           1139 ave        1139 max        1139 min
Histogram: 1 0 0 0 0 0 0 0 0 0
Nghost:              0 ave           0 max           0 min
Histogram: 1 0 0 0 0 0 0 0 0 0
Neighs:          24432 ave       24432 max       24432 min
Histogram: 1 0 0 0 0 0 0 0 0 0
FullNghs:        48864 ave       48864 max       48864 min
Histogram: 1 0 0 0 0 0 0 0 0 0

Total # of neighbors = 48864
Ave neighs/atom = 42.90079
Neighbor list builds = 0
Dangerous builds = 0

print "All done!"
All done!
Total wall time: 0:01:32
