LAMMPS (2 Aug 2023 - Update 2)
OMP_NUM_THREADS environment is not set. Defaulting to 1 thread. (src/comm.cpp:98)
  using 1 OpenMP thread(s) per MPI task
Loaded 1 plugins from C:\Program Files\LAMMPS 64-bit 2Aug2023 with GUI\plugins
# Initialization

units		  metal
dimension 	      3
boundary	  f f f
atom_style	 atomic


# Atom Definition

read_data atom_definition.txt
Reading data file ...
  orthogonal box = (-0 -0 -0) to (200 200 200)
  1 by 1 by 1 MPI processor grid
  reading atoms ...
  201 atoms
  read_data CPU = 0.003 seconds


# Settings

pair_style meam/c
pair_coeff	* * library.meam Au NULL Au
Reading MEAM library file library.meam with DATE: 2012-06-29


timestep         0.001
velocity         all create 300 1551 mom yes rot yes dist gaussian
fix              2 all nvt temp 300 300 $(100.0*dt) drag 0.0 tchain 1
fix              2 all nvt temp 300 300 0.10000000000000000555 drag 0.0 tchain 1
fix              3 all recenter INIT INIT INIT

thermo_style custom step temp pe ke etotal enthalpy epair emol press
thermo 100


# Run a simulation

run              10000
Neighbor list info ...
  update: every = 1 steps, delay = 0 steps, check = yes
  max neighbors/atom: 2000, page size: 100000
  master list distance cutoff = 6
  ghost atom cutoff = 6
  binsize = 3, bins = 67 67 67
  2 neighbor lists, perpetual/occasional/extra = 2 0 0
  (1) pair meam/c, perpetual
      attributes: full, newton on
      pair build: full/bin/atomonly
      stencil: full/bin/3d
      bin: standard
  (2) pair meam/c, perpetual, half/full from (1)
      attributes: half, newton on
      pair build: halffull/newton
      stencil: none
      bin: none
Per MPI rank memory allocation (min/avg/max) = 10.04 | 10.04 | 10.04 Mbytes
   Step          Temp          PotEng         KinEng         TotEng        Enthalpy        E_pair         E_mol          Press     
         0   300           -718.07451      7.7556087     -710.3189      -844.17098     -718.07451      0             -26.806832    
       100   234.60431     -716.10404      6.0649974     -710.03904     -755.66925     -716.10404      0             -9.1384557    
       200   381.75914     -718.57895      9.8692485     -708.7097      -652.42737     -718.57895      0              11.271778    
       300   269.05491     -716.81942      6.9556154     -709.8638      -639.02608     -716.81942      0              14.186817    
       400   330.4537      -718.59287      8.5428987     -710.04997     -648.40389     -718.59287      0              12.345988    
       500   283.8864      -718.42519      7.3390394     -711.08615     -743.44831     -718.42519      0             -6.4812358    
       600   251.46361     -718.02037      6.5008445     -711.51953     -785.62336     -718.02037      0             -14.840928    
       700   292.87333     -717.82799      7.5713698     -710.25662     -748.87967     -717.82799      0             -7.7351178    
       800   326.62529     -717.47027      8.4439266     -709.02634     -667.26541     -717.47027      0              8.3635478    
       900   344.908       -718.09164      8.9165717     -709.17507     -636.54882     -718.09164      0              14.545009    
      1000   291.36947     -717.9785       7.532492      -710.44601     -695.25561     -717.9785       0              3.0422121    
      1100   273.53074     -718.57287      7.0713247     -711.50154     -732.42615     -718.57287      0             -4.1906152    
      1200   275.46449     -718.6439       7.121316      -711.52258     -749.86665     -718.6439       0             -7.6792456    
      1300   300.28098     -718.32004      7.7628726     -710.55716     -737.87911     -718.32004      0             -5.4718224    
      1400   311.63336     -717.92217      8.0563547     -709.86582     -698.01093     -717.92217      0              2.3742027    
      1500   329.26713     -718.52471      8.5122235     -710.01248     -664.83405     -718.52471      0              9.0479781    
      1600   298.31923     -718.44092      7.7121575     -710.72876     -689.69971     -718.44092      0              4.2115319    
      1700   276.70237     -718.57592      7.1533177     -711.4226      -723.78333     -718.57592      0             -2.4755096    
      1800   288.9981      -718.77909      7.4711874     -711.3079      -734.60414     -718.77909      0             -4.6655864    
      1900   312.21423     -718.43486      8.0713713     -710.36349     -734.27411     -718.43486      0             -4.7886285    
      2000   308.81405     -717.50852      7.9834696     -709.52505     -710.89836     -717.50852      0             -0.27503666   
      2100   306.94724     -717.45396      7.9352089     -709.51875     -678.64595     -717.45396      0              6.1829595    
      2200   293.46177     -717.99326      7.5865821     -710.40668     -685.24733     -717.99326      0              5.0387136    
      2300   306.63654     -718.99821      7.9271767     -711.07103     -718.7096      -718.99821      0             -1.5297911    
      2400   277.08584     -718.66703      7.1632311     -711.5038      -729.43835     -718.66703      0             -3.5917889    
      2500   295.93381     -718.71398      7.6504894     -711.06349     -723.95884     -718.71398      0             -2.582578     
      2600   308.77473     -718.24897      7.9824533     -710.26652     -715.35731     -718.24897      0             -1.0195437    
      2700   314.32901     -718.08577      8.1260427     -709.95973     -693.26596     -718.08577      0              3.3432941    
      2800   319.87937     -718.50304      8.2695306     -710.23351     -690.0039      -718.50304      0              4.0514259    
      2900   306.58207     -718.59801      7.9257687     -710.67224     -709.7796      -718.59801      0              0.17877115   
      3000   283.27808     -718.43669      7.3233132     -711.11338     -732.7045      -718.43669      0             -4.3240985    
      3100   301.90164     -718.64346      7.80477       -710.83869     -720.42892     -718.64346      0             -1.9206549    
      3200   300.9171      -718.12952      7.7793177     -710.35021     -705.75143     -718.12952      0              0.92100614   
      3300   289.25739     -717.74982      7.4778903     -710.27193     -699.23203     -717.74982      0              2.2109822    
      3400   309.76393     -718.29564      8.0080262     -710.28761     -695.31278     -718.29564      0              2.9990408    
      3500   299.98665     -718.19132      7.7552636     -710.43605     -708.78364     -718.19132      0              0.33093215   
      3600   307.80574     -718.47655      7.9574029     -710.51915     -730.46986     -718.47655      0             -3.9955705    
      3700   269.96492     -717.82074      6.979141      -710.8416      -720.90584     -717.82074      0             -2.0155862    
      3800   304.32477     -718.37421      7.8674129     -710.5068      -711.16112     -718.37421      0             -0.13104168   
      3900   325.13206     -718.4875       8.4053234     -710.08217     -701.13588     -718.4875       0              1.7916925    
      4000   317.61918     -718.40561      8.2111001     -710.19451     -689.66157     -718.40561      0              4.1121741    
      4100   262.6309      -717.8704       6.7895417     -711.08085     -705.94821     -717.8704       0              1.0279252    
      4200   285.96109     -718.58291      7.3926745     -711.19023     -727.62356     -718.58291      0             -3.2911363    
      4300   296.87537     -718.25449      7.6748306     -710.57966     -726.77736     -718.25449      0             -3.2439478    
      4400   314.13638     -717.78994      8.1210628     -709.66888     -716.82461     -717.78994      0             -1.4330936    
      4500   327.42069     -717.83949      8.4644891     -709.375       -695.7902      -717.83949      0              2.7206557    
      4600   319.02035     -718.33954      8.2473233     -710.09221     -692.70113     -718.33954      0              3.4829491    
      4700   275.86084     -718.68723      7.1315623     -711.55567     -702.81311     -718.68723      0              1.7508904    
      4800   279.86372     -719.34629      7.235045      -712.11125     -722.53826     -719.34629      0             -2.0882392    
      4900   282.96261     -718.70495      7.3151576     -711.38979     -728.02067     -718.70495      0             -3.3306998    
      5000   323.14027     -718.12533      8.3538315     -709.7715      -720.44902     -718.12533      0             -2.1384088    
      5100   330.84338     -717.80235      8.5529726     -709.24937     -695.66695     -717.80235      0              2.7201798    
      5200   297.3298      -717.77759      7.6865786     -710.09101     -694.62056     -717.77759      0              3.0982986    
      5300   281.80459     -718.29196      7.2852205     -711.00674     -708.44133     -718.29196      0              0.51377951   
      5400   286.16273     -718.72616      7.3978872     -711.32827     -707.01581     -718.72616      0              0.86366594   
      5500   289.86062     -718.49806      7.4934853     -711.00457     -724.2958      -718.49806      0             -2.661862     
      5600   307.93845     -718.11928      7.9608336     -710.15844     -723.2998      -718.11928      0             -2.6318457    
      5700   332.00312     -718.3674       8.5829544     -709.78444     -707.73489     -718.3674       0              0.41046841   
      5800   290.79372     -717.77447      7.5176077     -710.25686     -707.01994     -717.77447      0              0.64826512   
      5900   280.33072     -717.87084      7.247118      -710.62372     -698.38272     -717.87084      0              2.4515293    
      6000   284.54225     -718.38407      7.3559944     -711.02808     -704.96708     -718.38407      0              1.2138484    
      6100   293.20451     -718.81272      7.5799315     -711.23279     -717.41068     -718.81272      0             -1.2372591    
      6200   304.27453     -718.57728      7.8661141     -710.71117     -716.25765     -718.57728      0             -1.1108045    
      6300   314.85465     -717.83431      8.1396316     -709.69468     -719.76364     -717.83431      0             -2.0165304    
      6400   307.30177     -717.47403      7.9443743     -709.52966     -709.38025     -717.47403      0              0.029921975  
      6500   309.74924     -718.4347       8.0076462     -710.42706     -700.78692     -718.4347       0              1.930651     
      6600   271.39854     -718.59376      7.016203      -711.57756     -711.4208      -718.59376      0              0.031394167  
      6700   271.03524     -718.53597      7.0068108     -711.52916     -714.15043     -718.53597      0             -0.52496731   
      6800   330.26228     -718.72153      8.5379499     -710.18358     -702.67476     -718.72153      0              1.5038085    
      6900   292.88908     -717.32296      7.571777      -709.75118     -713.14286     -717.32296      0             -0.67925769   
      7000   314.35299     -718.23135      8.1266626     -710.10469     -718.39476     -718.23135      0             -1.66027      
      7100   289.85998     -718.55721      7.4934687     -711.06374     -704.14242     -718.55721      0              1.3861468    
      7200   263.23746     -718.45515      6.8052226     -711.64992     -716.64309     -718.45515      0             -0.99999105   
      7300   315.00254     -719.14649      8.1434549     -711.00304     -708.17592     -719.14649      0              0.56619295   
      7400   312.15685     -718.34847      8.0698879     -710.27858     -701.63494     -718.34847      0              1.7310795    
      7500   315.56952     -718.20023      8.1581124     -710.04212     -712.85425     -718.20023      0             -0.56319094   
      7600   313.6904      -718.51836      8.1095333     -710.40883     -715.90789     -718.51836      0             -1.1013075    
      7700   286.93829     -718.38605      7.4179369     -710.96811     -713.26131     -718.38605      0             -0.45926454   
      7800   272.62458     -718.02641      7.0478986     -710.97851     -705.38266     -718.02641      0              1.1206927    
      7900   283.0637      -717.73523      7.3177711     -710.41746     -710.23792     -717.73523      0              0.035956456  
      8000   315.89106     -717.62028      8.166425      -709.45386     -704.93617     -717.62028      0              0.90476677   
      8100   320.84221     -717.16198      8.2944222     -708.86755     -716.57178     -717.16198      0             -1.5429405    
      8200   306.42215     -717.26937      7.9216344     -709.34773     -715.69586     -717.26937      0             -1.2713519    
      8300   285.32192     -717.64107      7.3761506     -710.26492     -706.81135     -717.64107      0              0.69165194   
      8400   301.29012     -718.51797      7.7889608     -710.72901     -708.91797     -718.51797      0              0.3627015    
      8500   280.1105      -718.09527      7.2414246     -710.85385     -710.77328     -718.09527      0              0.016136358  
      8600   319.97813     -718.70852      8.2720838     -710.43644     -707.57993     -718.70852      0              0.57207766   
      8700   291.95989     -718.26552      7.5477556     -710.71776     -717.05738     -718.26552      0             -1.2696489    
      8800   295.60162     -718.40305      7.6419016     -710.76114     -712.65515     -718.40305      0             -0.3793163    
      8900   299.55392     -718.47125      7.7440765     -710.72717     -709.49696     -718.47125      0              0.24637762   
      9000   314.65306     -718.79228      8.13442       -710.65786     -705.13638     -718.79228      0              1.1057986    
      9100   298.73195     -718.39362      7.7228271     -710.67079     -712.44014     -718.39362      0             -0.3543506    
      9200   307.84777     -718.4129       7.9584896     -710.45441     -709.20478     -718.4129       0              0.25026664   
      9300   296.56741     -718.05282      7.6668694     -710.38595     -715.06922     -718.05282      0             -0.93792765   
      9400   305.38883     -718.13911      7.8949209     -710.24419     -719.17327     -718.13911      0             -1.7882452    
      9500   311.47291     -718.32889      8.0522066     -710.27668     -706.67176     -718.32889      0              0.72196496   
      9600   287.87216     -718.08797      7.4420793     -710.64589     -700.2453      -718.08797      0              2.0829486    
      9700   294.32211     -718.34049      7.6088236     -710.73167     -707.3701      -718.34049      0              0.67322832   
      9800   310.03864     -718.65904      8.015128      -710.64392     -713.70387     -718.65904      0             -0.61282236   
      9900   307.73711     -718.5488       7.9556286     -710.59317     -718.40535     -718.5488       0             -1.5645605    
     10000   303.47425     -718.40038      7.8454252     -710.55496     -708.64837     -718.40038      0              0.38183591   
Loop time of 15.9006 on 1 procs for 10000 steps with 201 atoms

Performance: 54.337 ns/day, 0.442 hours/ns, 628.906 timesteps/s, 126.410 katom-step/s
99.7% CPU use with 1 MPI tasks x 1 OpenMP threads

MPI task timing breakdown:
Section |  min time  |  avg time  |  max time  |%varavg| %total
---------------------------------------------------------------
Pair    | 15.747     | 15.747     | 15.747     |   0.0 | 99.03
Neigh   | 0          | 0          | 0          |   0.0 |  0.00
Comm    | 0.003133   | 0.003133   | 0.003133   |   0.0 |  0.02
Output  | 0.034949   | 0.034949   | 0.034949   |   0.0 |  0.22
Modify  | 0.099717   | 0.099717   | 0.099717   |   0.0 |  0.63
Other   |            | 0.01609    |            |       |  0.10

Nlocal:            201 ave         201 max         201 min
Histogram: 1 0 0 0 0 0 0 0 0 0
Nghost:              0 ave           0 max           0 min
Histogram: 1 0 0 0 0 0 0 0 0 0
Neighs:           3498 ave        3498 max        3498 min
Histogram: 1 0 0 0 0 0 0 0 0 0
FullNghs:         6996 ave        6996 max        6996 min
Histogram: 1 0 0 0 0 0 0 0 0 0

Total # of neighbors = 6996
Ave neighs/atom = 34.80597
Neighbor list builds = 0
Dangerous builds = 0

print "All done!"
All done!
Total wall time: 0:00:15
