LAMMPS (2 Aug 2023 - Update 2)
OMP_NUM_THREADS environment is not set. Defaulting to 1 thread. (src/comm.cpp:98)
  using 1 OpenMP thread(s) per MPI task
Loaded 1 plugins from C:\Program Files\LAMMPS 64-bit 2Aug2023 with GUI\plugins
# Initialization

units		  metal
dimension 	      3
boundary	  f f f
atom_style	 atomic


# Atom Definition

read_data atom_definition.txt
Reading data file ...
  orthogonal box = (-0 -0 -0) to (200 200 200)
  1 by 1 by 1 MPI processor grid
  reading atoms ...
  201 atoms
  read_data CPU = 0.003 seconds


# Settings

pair_style meam/c
pair_coeff	* * Au-Lee.meam Au Au-Lee-para.meam Au


timestep         0.001
velocity         all create 300 1551 mom yes rot yes dist gaussian
fix              2 all nvt temp 300 300 $(100.0*dt) drag 0.0 tchain 1
fix              2 all nvt temp 300 300 0.10000000000000000555 drag 0.0 tchain 1
fix              3 all recenter INIT INIT INIT

thermo_style custom step temp pe ke etotal enthalpy epair emol press
thermo 100


# Run a simulation

run              10000
Neighbor list info ...
  update: every = 1 steps, delay = 0 steps, check = yes
  max neighbors/atom: 2000, page size: 100000
  master list distance cutoff = 6.8
  ghost atom cutoff = 6.8
  binsize = 3.4, bins = 59 59 59
  2 neighbor lists, perpetual/occasional/extra = 2 0 0
  (1) pair meam/c, perpetual
      attributes: full, newton on
      pair build: full/bin/atomonly
      stencil: full/bin/3d
      bin: standard
  (2) pair meam/c, perpetual, half/full from (1)
      attributes: half, newton on
      pair build: halffull/newton
      stencil: none
      bin: none
Per MPI rank memory allocation (min/avg/max) = 9.648 | 9.648 | 9.648 Mbytes
   Step          Temp          PotEng         KinEng         TotEng        Enthalpy        E_pair         E_mol          Press     
         0   300           -713.66759      7.7556087     -705.91198     -831.20461     -713.66759      0             -25.092613    
       100   183.73107     -710.23498      4.749821      -705.48516     -695.20802     -710.23498      0              2.0582234    
       200   360.73708     -711.17813      9.3257854     -701.85234     -658.10612     -711.17813      0              8.7611454    
       300   363.4611      -708.72629      9.3962069     -699.33008     -649.41577     -708.72629      0              9.9964425    
       400   353.93959     -709.10505      9.1500565     -699.955       -666.53942     -709.10505      0              6.6922065    
       500   273.64956     -709.94314      7.0743965     -702.86874     -754.99119     -709.94314      0             -10.43867     
       600   254.81397     -710.92637      6.5874582     -704.33891     -751.10221     -710.92637      0             -9.3653821    
       700   289.71937     -711.73865      7.4898337     -704.24881     -714.4823      -711.73865      0             -2.0494823    
       800   288.04594     -711.13433      7.446572      -703.68775     -647.36995     -711.13433      0              11.278883    
       900   318.22556     -710.87447      8.2267765     -702.64769     -653.34186     -710.87447      0              9.87458      
      1000   315.29371     -710.43755      8.150982      -702.28657     -703.22804     -710.43755      0             -0.18855069   
      1100   293.15852     -710.08707      7.5787426     -702.50833     -746.30651     -710.08707      0             -8.7715525    
      1200   286.67411     -709.67287      7.4111074     -702.26177     -758.39089     -709.67287      0             -11.241095    
      1300   327.85054     -709.93953      8.4756016     -701.46393     -697.02928     -709.93953      0              0.88813733   
      1400   328.8329      -711.08585      8.5009975     -702.58485     -648.15724     -711.08585      0              10.90033     
      1500   274.31728     -711.59957      7.0916583     -704.50791     -669.18463     -711.59957      0              7.0742666    
      1600   250.61891     -711.4151       6.4790073     -704.93609     -714.12062     -711.4151       0             -1.8394049    
      1700   294.10027     -711.13705      7.6030888     -703.53396     -737.54042     -711.13705      0             -6.8105432    
      1800   328.29268     -710.02345      8.4870318     -701.53642     -733.96518     -710.02345      0             -6.4945755    
      1900   322.50538     -709.06078      8.3374185     -700.72336     -700.1095      -709.06078      0              0.12293891   
      2000   296.71483     -709.20516      7.6706804     -701.53448     -667.2972      -709.20516      0              6.8567693    
      2100   327.28796     -711.28752      8.4610578     -702.82646     -683.93545     -711.28752      0              3.7833412    
      2200   274.87968     -711.61407      7.1061974     -704.50787     -702.26174     -711.61407      0              0.44983647   
      2300   258.35263     -711.59212      6.6789397     -704.91318     -736.56921     -711.59212      0             -6.3398195    
      2400   274.60791     -710.6471       7.0991717     -703.54793     -715.79218     -710.6471       0             -2.4521822    
      2500   328.99912     -709.4313       8.5052947     -700.92601     -678.8291      -709.4313       0              4.4253937    
      2600   327.19538     -708.45018      8.4586645     -699.99152     -681.4776      -708.45018      0              3.7078201    
      2700   325.18918     -710.07236      8.4068001     -701.66556     -687.90992     -710.07236      0              2.7548692    
      2800   260.19844     -710.53079      6.7266576     -703.80414     -714.43341     -710.53079      0             -2.1287459    
      2900   266.80609     -711.21854      6.8974789     -704.32106     -732.57663     -711.21854      0             -5.6587997    
      3000   306.10971     -711.50262      7.9135571     -703.58906     -705.38176     -711.50262      0             -0.35902721   
      3100   328.76589     -711.15113      8.4992652     -702.65187     -687.34532     -711.15113      0              3.0654732    
      3200   323.73753     -710.6965       8.3692719     -702.32723     -678.88702     -710.6965       0              4.6944202    
      3300   268.21549     -709.86286      6.9339146     -702.92894     -693.04849     -709.86286      0              1.9787791    
      3400   316.65531     -711.11536      8.1861823     -702.92918     -727.44574     -711.11536      0             -4.909981     
      3500   278.17529     -710.10425      7.1913958     -702.91286     -722.81795     -710.10425      0             -3.9864342    
      3600   321.13297     -710.72669      8.3019387     -702.42475     -706.93468     -710.72669      0             -0.90321394   
      3700   307.89345     -710.4842       7.9596704     -702.52453     -683.52962     -710.4842       0              3.8041511    
      3800   293.27851     -710.46559      7.5818444     -702.88375     -686.99658     -710.46559      0              3.1817566    
      3900   296.65919     -710.6071       7.669242      -702.93786     -695.69992     -710.6071       0              1.449557     
      4000   322.77795     -711.01099      8.344465      -702.66653     -715.68631     -711.01099      0             -2.6074992    
      4100   284.73656     -710.31888      7.3610179     -702.95786     -725.37737     -710.31888      0             -4.4900021    
      4200   292.40069     -710.36111      7.559151      -702.80195     -714.68757     -710.36111      0             -2.3803568    
      4300   326.76373     -711.17204      8.4475053     -702.72453     -681.3104      -711.17204      0              4.2886514    
      4400   284.04413     -710.74191      7.343117      -703.3988      -680.2818      -710.74191      0              4.6296885    
      4500   283.0095      -710.65943      7.3163698     -703.34306     -702.45542     -710.65943      0              0.17776813   
      4600   319.39077     -711.03918      8.2568995     -702.78228     -714.68255     -711.03918      0             -2.3832916    
      4700   292.3217      -710.36354      7.557109      -702.80643     -724.56778     -710.36354      0             -4.3581896    
      4800   279.88923     -709.8235       7.2357046     -702.5878      -702.59446     -709.8235       0             -0.0013356669 
      4900   317.25981     -709.94979      8.2018099     -701.74798     -694.16092     -709.94979      0              1.519477     
      5000   328.31063     -710.41546      8.4874959     -701.92796     -684.38041     -710.41546      0              3.5142844    
      5100   287.05367     -710.7543       7.4209199     -703.33338     -698.45338     -710.7543       0              0.97732676   
      5200   284.2656      -711.38522      7.3488426     -704.03638     -720.43527     -711.38522      0             -3.2842396    
      5300   277.51518     -710.93239      7.1743304     -703.75806     -711.06624     -710.93239      0             -1.4636225    
      5400   308.94649     -710.37342      7.9868937     -702.38652     -698.46117     -710.37342      0              0.78613881   
      5500   338.56165     -710.07594      8.7525057     -701.32343     -685.93756     -710.07594      0              3.081361     
      5600   310.69694     -710.14635      8.0321463     -702.1142      -697.52754     -710.14635      0              0.9185802    
      5700   289.67914     -710.82197      7.4887936     -703.33317     -720.90273     -710.82197      0             -3.5186908    
      5800   264.6169      -710.72609      6.8408838     -703.88521     -713.25585     -710.72609      0             -1.8766787    
      5900   284.73855     -710.84243      7.3610694     -703.48136     -693.88934     -710.84243      0              1.921014     
      6000   303.27784     -710.76894      7.8403475     -702.9286      -688.91678     -710.76894      0              2.8061744    
      6100   288.9774      -709.92735      7.4706522     -702.45669     -693.6389      -709.92735      0              1.7659577    
      6200   311.73938     -709.91852      8.0590954     -701.85943     -705.42844     -709.91852      0             -0.71477335   
      6300   322.43652     -710.2324       8.3356384     -701.89676     -720.02068     -710.2324       0             -3.6297151    
      6400   293.26877     -710.04769      7.5815929     -702.4661      -709.37673     -710.04769      0             -1.3840072    
      6500   319.67679     -711.05755      8.2642935     -702.79326     -711.0867      -711.05755      0             -1.6609439    
      6600   286.0914      -710.98454      7.3960431     -703.58849     -683.72458     -710.98454      0              3.9781863    
      6700   289.493       -711.52634      7.4839815     -704.04236     -682.51148     -711.52634      0              4.312033     
      6800   282.63863     -711.38484      7.3067821     -704.07805     -708.2517      -711.38484      0             -0.83586398   
      6900   278.78842     -710.56845      7.2072464     -703.36121     -724.67866     -710.56845      0             -4.2692909    
      7000   314.63025     -709.95573      8.1338303     -701.8219      -712.45584     -709.95573      0             -2.129681     
      7100   318.01488     -709.02735      8.22133       -700.80602     -693.63662     -709.02735      0              1.435831     
      7200   337.32619     -709.82895      8.7205665     -701.10838     -689.53878     -709.82895      0              2.3170666    
      7300   293.5103      -710.56959      7.5878368     -702.98175     -693.84702     -710.56959      0              1.8294315    
      7400   258.35693     -711.21817      6.6790507     -704.53911     -706.84526     -711.21817      0             -0.46185666   
      7500   275.17465     -711.67635      7.1138232     -704.56252     -716.37029     -711.67635      0             -2.3647652    
      7600   283.79123     -710.79489      7.336579      -703.45831     -708.65798     -710.79489      0             -1.0413489    
      7700   306.30129     -709.67332      7.9185097     -701.75481     -690.13662     -709.67332      0              2.3267994    
      7800   337.0365      -709.3171       8.7130774     -700.60402     -689.32082     -709.3171       0              2.2597113    
      7900   307.15724     -709.50525      7.9406379     -701.56461     -692.60588     -709.50525      0              1.7941832    
      8000   268.4014      -710.29325      6.9387208     -703.35453     -717.19112     -710.29325      0             -2.7710834    
      8100   286.14941     -711.50743      7.3975429     -704.10989     -727.43287     -711.50743      0             -4.6709414    
      8200   309.5002      -711.88568      8.0012081     -703.88447     -696.2978      -711.88568      0              1.5193995    
      8300   279.33139     -710.52989      7.2212831     -703.30861     -682.92828     -710.52989      0              4.0816105    
      8400   314.14394     -710.24284      8.1212582     -702.12158     -684.35004     -710.24284      0              3.5591436    
      8500   333.29862     -710.08717      8.6164455     -701.47072     -709.97909     -710.08717      0             -1.7039896    
      8600   301.79555     -709.81065      7.8020273     -702.00863     -725.31668     -709.81065      0             -4.6679519    
      8700   295.89467     -710.49101      7.6494775     -702.84153     -722.49852     -710.49101      0             -3.9367464    
      8800   287.38793     -710.68615      7.429561      -703.25659     -705.48223     -710.68615      0             -0.44573336   
      8900   342.72381     -712.20968      8.8601058     -703.34958     -673.78294     -712.20968      0              5.9213719    
      9000   258.64202     -710.96889      6.686421      -704.28247     -681.1336      -710.96889      0              4.6360731    
      9100   281.82386     -711.02942      7.2857186     -703.7437      -708.70628     -711.02942      0             -0.9938667    
      9200   299.29717     -710.11544      7.737439      -702.378       -728.87638     -710.11544      0             -5.3068856    
      9300   308.88218     -709.01928      7.985231      -701.03405     -718.48246     -709.01928      0             -3.4944294    
      9400   358.42267     -710.05711      9.2659534     -700.79116     -695.82533     -710.05711      0              0.99451702   
      9500   285.68023     -710.6045       7.3854136     -703.21908     -689.7036      -710.6045       0              2.7067741    
      9600   260.50809     -711.65314      6.7346627     -704.91848     -688.56783     -711.65314      0              3.2745784    
      9700   272.30303     -711.87231      7.0395858     -704.83273     -707.81324     -711.87231      0             -0.5969134    
      9800   282.61061     -710.6088       7.3060576     -703.30274     -715.24162     -710.6088       0             -2.3910234    
      9900   341.84911     -709.85217      8.8374932     -701.01467     -709.88776     -709.85217      0             -1.7770319    
     10000   333.97413     -709.32441      8.633909      -700.6905      -703.11417     -709.32441      0             -0.48539426   
Loop time of 16.808 on 1 procs for 10000 steps with 201 atoms

Performance: 51.404 ns/day, 0.467 hours/ns, 594.956 timesteps/s, 119.586 katom-step/s
99.9% CPU use with 1 MPI tasks x 1 OpenMP threads

MPI task timing breakdown:
Section |  min time  |  avg time  |  max time  |%varavg| %total
---------------------------------------------------------------
Pair    | 16.668     | 16.668     | 16.668     |   0.0 | 99.17
Neigh   | 0          | 0          | 0          |   0.0 |  0.00
Comm    | 0.002409   | 0.002409   | 0.002409   |   0.0 |  0.01
Output  | 0.04017    | 0.04017    | 0.04017    |   0.0 |  0.24
Modify  | 0.085031   | 0.085031   | 0.085031   |   0.0 |  0.51
Other   |            | 0.01228    |            |       |  0.07

Nlocal:            201 ave         201 max         201 min
Histogram: 1 0 0 0 0 0 0 0 0 0
Nghost:              0 ave           0 max           0 min
Histogram: 1 0 0 0 0 0 0 0 0 0
Neighs:           4674 ave        4674 max        4674 min
Histogram: 1 0 0 0 0 0 0 0 0 0
FullNghs:         9348 ave        9348 max        9348 min
Histogram: 1 0 0 0 0 0 0 0 0 0

Total # of neighbors = 9348
Ave neighs/atom = 46.507463
Neighbor list builds = 0
Dangerous builds = 0

print "All done!"
All done!
Total wall time: 0:00:16
