LAMMPS (2 Aug 2023 - Update 2)
OMP_NUM_THREADS environment is not set. Defaulting to 1 thread. (src/comm.cpp:98)
  using 1 OpenMP thread(s) per MPI task
Loaded 1 plugins from C:\Program Files\LAMMPS 64-bit 2Aug2023 with GUI\plugins
# Initialization

units		  metal
dimension 	      3
boundary	  f f f
atom_style	 atomic


# Atom Definition

read_data atom_definition.txt
Reading data file ...
  orthogonal box = (-0 -0 -0) to (200 200 200)
  1 by 1 by 1 MPI processor grid
  reading atoms ...
  405 atoms
  read_data CPU = 0.006 seconds


# Settings

pair_style meam/c
pair_coeff	* * Au-Lee.meam Au Au-Lee-para.meam Au


timestep         0.001
velocity         all create 300 1551 mom yes rot yes dist gaussian
fix              2 all nvt temp 300 300 $(100.0*dt) drag 0.0 tchain 1
fix              2 all nvt temp 300 300 0.10000000000000000555 drag 0.0 tchain 1
fix              3 all recenter INIT INIT INIT

thermo_style custom step temp pe ke etotal enthalpy epair emol press
thermo 100


# Run a simulation

run              10000
Neighbor list info ...
  update: every = 1 steps, delay = 0 steps, check = yes
  max neighbors/atom: 2000, page size: 100000
  master list distance cutoff = 6.8
  ghost atom cutoff = 6.8
  binsize = 3.4, bins = 59 59 59
  2 neighbor lists, perpetual/occasional/extra = 2 0 0
  (1) pair meam/c, perpetual
      attributes: full, newton on
      pair build: full/bin/atomonly
      stencil: full/bin/3d
      bin: standard
  (2) pair meam/c, perpetual, half/full from (1)
      attributes: half, newton on
      pair build: halffull/newton
      stencil: none
      bin: none
Per MPI rank memory allocation (min/avg/max) = 9.787 | 9.787 | 9.787 Mbytes
   Step          Temp          PotEng         KinEng         TotEng        Enthalpy        E_pair         E_mol          Press     
         0   300           -1468.7679      15.66633      -1453.1015     -1695.0528     -1468.7679      0             -48.456076    
       100   181.1433      -1461.6025      9.4595023     -1452.143      -1432.3335     -1461.6025      0              3.9672906    
       200   352.41937     -1462.5824      18.403727     -1444.1787     -1342.1244     -1462.5824      0              20.438624    
       300   404.04808     -1457.9852      21.099834     -1436.8854     -1339.763      -1457.9852      0              19.450906    
       400   370.72028     -1456.8621      19.35942      -1437.5027     -1327.3833     -1456.8621      0              22.053848    
       500   294.92        -1460.3795      15.401046     -1444.9784     -1456.2601     -1460.3795      0             -2.2593981    
       600   231.60818     -1463.3091      12.094833     -1451.2142     -1499.4535     -1463.3091      0             -9.6609793    
       700   231.64877     -1464.1872      12.096953     -1452.0903     -1553.3358     -1464.1872      0             -20.276665    
       800   294.27059     -1462.9335      15.367133     -1447.5664     -1485.3908     -1462.9335      0             -7.57517      
       900   349.52097     -1459.0442      18.252369     -1440.7918     -1359.2063     -1459.0442      0              16.339304    
      1000   363.6562      -1457.895       18.990526     -1438.9045     -1330.0943     -1457.895       0              21.791635    
      1100   309.65029     -1460.4889      16.170278     -1444.3186     -1361.9409     -1460.4889      0              16.49795     
      1200   247.08878     -1462.8252      12.903247     -1449.9219     -1465.6261     -1462.8252      0             -3.145097     
      1300   244.55934     -1463.851       12.771158     -1451.0798     -1506.8566     -1463.851       0             -11.170533    
      1400   296.7437      -1463.163       15.496282     -1447.6668     -1510.3971     -1463.163       0             -12.563131    
      1500   327.72067     -1459.6975      17.113933     -1442.5836     -1477.0234     -1459.6975      0             -6.8973241    
      1600   358.59071     -1458.8959      18.726001     -1440.1699     -1420.3924     -1458.8959      0              3.9608735    
      1700   308.8884      -1459.3725      16.130492     -1443.242      -1369.5353     -1459.3725      0              14.761384    
      1800   277.49727     -1461.8133      14.491212     -1447.3221     -1396.9593     -1461.8133      0              10.086274    
      1900   277.80319     -1463.9456      14.507188     -1449.4384     -1469.2694     -1463.9456      0             -3.9716024    
      2000   260.22602     -1462.5906      13.589289     -1449.0013     -1476.5933     -1462.5906      0             -5.525912     
      2100   311.75046     -1461.7219      16.279951     -1445.442      -1469.6546     -1461.7219      0             -4.849116     
      2200   330.67748     -1459.6049      17.268341     -1442.3366     -1455.8478     -1459.6049      0             -2.705916     
      2300   308.03283     -1458.2931      16.085813     -1442.2072     -1442.3903     -1458.2931      0             -0.036654602  
      2400   322.39312     -1460.5036      16.835723     -1443.6679     -1428.4312     -1460.5036      0              3.0514776    
      2500   295.90454     -1462.0376      15.45246      -1446.5851     -1424.1797     -1462.0376      0              4.4871707    
      2600   272.38442     -1462.8478      14.224213     -1448.6236     -1449.29       -1462.8478      0             -0.13345622   
      2700   280.57666     -1462.976       14.652021     -1448.324      -1467.3756     -1462.976       0             -3.8155012    
      2800   314.18762     -1462.7297      16.407223     -1446.3224     -1450.4975     -1462.7297      0             -0.83615528   
      2900   295.17611     -1459.8526      15.414421     -1444.4382     -1423.7753     -1459.8526      0              4.138186     
      3000   335.16634     -1460.3556      17.502755     -1442.8528     -1451.9268     -1460.3556      0             -1.8172542    
      3100   301.62926     -1460.0807      15.751411     -1444.3293     -1447.6201     -1460.0807      0             -0.65905784   
      3200   290.43753     -1461.388       15.166967     -1446.221      -1447.1487     -1461.388       0             -0.18579074   
      3300   295.2066      -1462.4523      15.416013     -1447.0363     -1449.1387     -1462.4523      0             -0.42105181   
      3400   298.41375     -1462.7818      15.583494     -1447.1983     -1452.8209     -1462.7818      0             -1.1260418    
      3500   272.2214      -1460.995       14.215701     -1446.7793     -1449.5095     -1460.995       0             -0.54678799   
      3600   313.82184     -1460.8462      16.388121     -1444.4581     -1429.961      -1460.8462      0              2.9033623    
      3700   326.44907     -1460.055       17.047529     -1443.0075     -1418.8201     -1460.055       0              4.8440721    
      3800   311.1795      -1460.6216      16.250135     -1444.3714     -1455.6471     -1460.6216      0             -2.2581891    
      3900   283.26306     -1460.9571      14.792308     -1446.1648     -1464.8282     -1460.9571      0             -3.7377604    
      4000   296.7892      -1461.8865      15.498658     -1446.3879     -1455.0804     -1461.8865      0             -1.7408759    
      4100   296.71507     -1461.9342      15.494787     -1446.4394     -1457.8735     -1461.9342      0             -2.2899339    
      4200   295.17811     -1461.6562      15.414525     -1446.2416     -1420.9239     -1461.6562      0              5.0704374    
      4300   296.42536     -1461.1824      15.479658     -1445.7027     -1441.3413     -1461.1824      0              0.87347356   
      4400   306.6729      -1461.1895      16.014796     -1445.1747     -1425.1951     -1461.1895      0              4.0013667    
      4500   308.90523     -1461.1559      16.131371     -1445.0245     -1441.4886     -1461.1559      0              0.70814124   
      4600   295.28391     -1461.1899      15.42005      -1445.7699     -1486.0652     -1461.1899      0             -8.0700198    
      4700   295.54904     -1461.1515      15.433896     -1445.7176     -1455.8205     -1461.1515      0             -2.0233126    
      4800   305.72478     -1460.9834      15.965284     -1445.0181     -1439.842      -1460.9834      0              1.0366158    
      4900   310.19734     -1461.5878      16.198846     -1445.389      -1423.8807     -1461.5878      0              4.3074991    
      5000   296.41636     -1461.8429      15.479188     -1446.3637     -1436.0761     -1461.8429      0              2.0603065    
      5100   286.60547     -1461.5603      14.966852     -1446.5934     -1435.0705     -1461.5603      0              2.3077183    
      5200   310.73562     -1462.1407      16.226955     -1445.9138     -1447.0456     -1462.1407      0             -0.22667182   
      5300   281.57243     -1460.4479      14.704022     -1445.7438     -1474.2111     -1460.4479      0             -5.7011953    
      5400   308.02733     -1460.6299      16.085526     -1444.5444     -1468.5091     -1460.6299      0             -4.7994594    
      5500   330.93525     -1460.7878      17.281802     -1443.506      -1442.3434     -1460.7878      0              0.23283532   
      5600   315.03403     -1460.5366      16.451423     -1444.0852     -1423.3317     -1460.5366      0              4.156353     
      5700   304.37488     -1461.6021      15.894791     -1445.7073     -1424.0381     -1461.6021      0              4.3397352    
      5800   266.35603     -1461.1786      13.909404     -1447.2692     -1445.0619     -1461.1786      0              0.44204586   
      5900   289.15256     -1461.6613      15.099864     -1446.5615     -1463.1372     -1461.6613      0             -3.3196578    
      6000   312.77925     -1461.2505      16.333676     -1444.9168     -1448.6008     -1461.2505      0             -0.73780126   
      6100   319.09105     -1460.7424      16.663285     -1444.0792     -1456.9759     -1460.7424      0             -2.5828612    
      6200   302.11143     -1460.387       15.776591     -1444.6104     -1448.8016     -1460.387       0             -0.83939573   
      6300   285.71791     -1460.1499      14.920503     -1445.2294     -1431.2898     -1460.1499      0              2.7917097    
      6400   309.44966     -1461.7628      16.159801     -1445.603      -1434.0912     -1461.7628      0              2.3054887    
      6500   295.57032     -1462.1722      15.435007     -1446.7372     -1436.8675     -1462.1722      0              1.9766211    
      6600   293.9246      -1462.263       15.349066     -1446.9139     -1464.9646     -1462.263       0             -3.6150542    
      6700   279.76829     -1460.6149      14.609807     -1446.0051     -1449.0707     -1460.6149      0             -0.61396333   
      6800   314.71824     -1460.6493      16.434932     -1444.2143     -1443.793      -1460.6493      0              0.084377374  
      6900   318.42984     -1460.326       16.628756     -1443.6972     -1446.5753     -1460.326       0             -0.57638546   
      7000   303.69753     -1460.419       15.859419     -1444.5595     -1433.7591     -1460.419       0              2.1630199    
      7100   295.29478     -1461.1351      15.420618     -1445.7145     -1451.9747     -1461.1351      0             -1.2537555    
      7200   294.56164     -1461.8003      15.382332     -1446.418      -1446.4169     -1461.8003      0              0.00021394129
      7300   297.64174     -1462.0661      15.543179     -1446.523      -1444.7198     -1462.0661      0              0.36111904   
      7400   290.14663     -1461.3745      15.151776     -1446.2227     -1455.0478     -1461.3745      0             -1.7674227    
      7500   285.7176      -1460.3283      14.920487     -1445.4078     -1437.3222     -1460.3283      0              1.6193266    
      7600   330.39141     -1461.2514      17.253402     -1443.998      -1434.7079     -1461.2514      0              1.8605482    
      7700   308.06809     -1460.6489      16.087654     -1444.5612     -1437.9996     -1460.6489      0              1.3141209    
      7800   286.99641     -1460.7222      14.987268     -1445.7349     -1459.219      -1460.7222      0             -2.7004843    
      7900   312.41797     -1462.2594      16.31481      -1445.9446     -1465.4595     -1462.2594      0             -3.9082829    
      8000   283.97454     -1461.6034      14.829463     -1446.7739     -1441.8381     -1461.6034      0              0.98850673   
      8100   291.68408     -1461.9532      15.232063     -1446.7212     -1431.4336     -1461.9532      0              3.0616685    
      8200   310.10919     -1462.0781      16.194242     -1445.8839     -1438.2336     -1462.0781      0              1.532147     
      8300   298.16996     -1460.9457      15.570763     -1445.3749     -1437.0915     -1460.9457      0              1.6589256    
      8400   300.00912     -1460.4353      15.666806     -1444.7685     -1446.4092     -1460.4353      0             -0.32857824   
      8500   304.32106     -1460.3545      15.89198      -1444.4625     -1445.0649     -1460.3545      0             -0.12062895   
      8600   311.41294     -1461.4092      16.262326     -1445.1469     -1478.5451     -1461.4092      0             -6.688729     
      8700   275.80069     -1460.7051      14.402615     -1446.3025     -1464.7353     -1460.7051      0             -3.6915654    
      8800   307.60589     -1461.81        16.063517     -1445.7465     -1428.6113     -1461.81        0              3.4317105    
      8900   293.34579     -1461.1754      15.318839     -1445.8565     -1415.9318     -1461.1754      0              5.99309      
      9000   298.92114     -1461.4764      15.60999      -1445.8665     -1427.7949     -1461.4764      0              3.6192332    
      9100   317.3268      -1461.7312      16.571154     -1445.1601     -1446.1259     -1461.7312      0             -0.19342748   
      9200   297.43977     -1461.1031      15.532631     -1445.5705     -1454.9692     -1461.1031      0             -1.8823009    
      9300   276.17346     -1460.5044      14.422081     -1446.0823     -1468.5522     -1460.5044      0             -4.5000916    
      9400   325.10679     -1461.9858      16.977434     -1445.0084     -1478.3798     -1461.9858      0             -6.6833586    
      9500   306.36744     -1461.089       15.998844     -1445.0901     -1439.0613     -1461.089       0              1.207405     
      9600   306.48156     -1461.5411      16.004804     -1445.5363     -1420.0406     -1461.5411      0              5.106085     
      9700   288.1137      -1461.5086      15.045614     -1446.463      -1418.571      -1461.5086      0              5.585987     
      9800   286.01096     -1461.7402      14.935807     -1446.8044     -1438.0636     -1461.7402      0              1.7505295    
      9900   294.69842     -1461.4953      15.389475     -1446.1058     -1462.4389     -1461.4953      0             -3.2710585    
     10000   306.83212     -1461.0894      16.02311      -1445.0663     -1460.2493     -1461.0894      0             -3.0407338    
Loop time of 44.9844 on 1 procs for 10000 steps with 405 atoms

Performance: 19.207 ns/day, 1.250 hours/ns, 222.299 timesteps/s, 90.031 katom-step/s
99.9% CPU use with 1 MPI tasks x 1 OpenMP threads

MPI task timing breakdown:
Section |  min time  |  avg time  |  max time  |%varavg| %total
---------------------------------------------------------------
Pair    | 44.706     | 44.706     | 44.706     |   0.0 | 99.38
Neigh   | 0          | 0          | 0          |   0.0 |  0.00
Comm    | 0.004926   | 0.004926   | 0.004926   |   0.0 |  0.01
Output  | 0.039121   | 0.039121   | 0.039121   |   0.0 |  0.09
Modify  | 0.20088    | 0.20088    | 0.20088    |   0.0 |  0.45
Other   |            | 0.03387    |            |       |  0.08

Nlocal:            405 ave         405 max         405 min
Histogram: 1 0 0 0 0 0 0 0 0 0
Nghost:              0 ave           0 max           0 min
Histogram: 1 0 0 0 0 0 0 0 0 0
Neighs:          10674 ave       10674 max       10674 min
Histogram: 1 0 0 0 0 0 0 0 0 0
FullNghs:        21348 ave       21348 max       21348 min
Histogram: 1 0 0 0 0 0 0 0 0 0

Total # of neighbors = 21348
Ave neighs/atom = 52.711111
Neighbor list builds = 0
Dangerous builds = 0

print "All done!"
All done!
Total wall time: 0:00:45
