LAMMPS (2 Aug 2023 - Update 2)
OMP_NUM_THREADS environment is not set. Defaulting to 1 thread. (src/comm.cpp:98)
  using 1 OpenMP thread(s) per MPI task
Loaded 1 plugins from C:\Program Files\LAMMPS 64-bit 2Aug2023 with GUI\plugins
# Initialization

units		  metal
dimension 	      3
boundary	  f f f
atom_style	 atomic


# Atom Definition

read_data atom_definition.txt
Reading data file ...
  orthogonal box = (-0 -0 -0) to (200 200 200)
  1 by 1 by 1 MPI processor grid
  reading atoms ...
  201 atoms
  read_data CPU = 0.005 seconds


# Settings

pair_style mliap model nn Cu.nn.mliap.model descriptor sna Cu.snap.mliap.descriptor
Reading potential file Cu.nn.mliap.model with DATE: 2021-03-03
Reading potential file Cu.snap.mliap.descriptor with DATE: 2021-03-03
SNAP keyword rcutfac 5.0 
SNAP keyword twojmax 6 
SNAP keyword nelems 1 
SNAP keyword elems Cu 
SNAP keyword radelems 0.5 
SNAP keyword welems 1.0 
SNAP keyword rfac0 0.99363 
SNAP keyword rmin0 0 
SNAP keyword bzeroflag 0 
SNAP keyword switchflag 1 
pair_coeff * * Cu


timestep         0.001
velocity         all create 300 1551 mom yes rot yes dist gaussian
fix              2 all nvt temp 300 300 $(100.0*dt) drag 0.0 tchain 1
fix              2 all nvt temp 300 300 0.10000000000000000555 drag 0.0 tchain 1
fix              3 all recenter INIT INIT INIT

thermo_style custom step temp pe ke etotal enthalpy epair emol press
thermo 100


# Run a simulation

run              10000
Neighbor list info ...
  update: every = 1 steps, delay = 0 steps, check = yes
  max neighbors/atom: 2000, page size: 100000
  master list distance cutoff = 7
  ghost atom cutoff = 7
  binsize = 3.5, bins = 58 58 58
  1 neighbor lists, perpetual/occasional/extra = 1 0 0
  (1) pair mliap, perpetual
      attributes: full, newton on
      pair build: full/bin/atomonly
      stencil: full/bin/3d
      bin: standard
Per MPI rank memory allocation (min/avg/max) = 31.02 | 31.02 | 31.02 Mbytes
   Step          Temp          PotEng         KinEng         TotEng        Enthalpy        E_pair         E_mol          Press     
         0   300           -658.3298       7.7556087     -650.57419     -1221.3211     -658.3298       0             -114.30467    
       100   783.87579     -745.16235      20.26478      -724.89757     -815.21569     -745.16235      0             -18.088195    
       200   115.46345     -774.80005      2.9849644     -771.81509     -811.51017     -774.80005      0             -7.9498169    
       300   49.86451      -782.21002      1.2890988     -780.92092     -792.5094      -782.21002      0             -2.3208495    
       400   47.372345     -786.05137      1.2246712     -784.8267      -780.57429     -786.05137      0              0.85163758   
       500   60.64113      -788.40144      1.5676962     -786.83374     -777.98296     -788.40144      0              1.7725653    
       600   124.83401     -789.69923      3.2272126     -786.47202     -781.06206     -789.69923      0              1.0834627    
       700   351.22648     -788.88558      9.079917      -779.80566     -789.41563     -788.88558      0             -1.924607     
       800   486.71232     -782.44946      12.582501     -769.86696     -788.79444     -782.44946      0             -3.790645     
       900   355.12231     -782.11539      9.1806322     -772.93476     -789.44034     -782.11539      0             -3.3056077    
      1000   266.06172     -785.81456      6.8782352     -778.93632     -788.10156     -785.81456      0             -1.8355419    
      1100   234.50834     -788.83215      6.0625165     -782.76963     -772.53271     -788.83215      0              2.0501688    
      1200   223.20605     -789.28947      5.7703292     -783.51914     -775.20413     -789.28947      0              1.6652639    
      1300   305.39311     -789.15307      7.8950315     -781.25804     -778.99785     -789.15307      0              0.45265211   
      1400   339.6641      -787.07919      8.7810061     -778.29819     -785.47189     -787.07919      0             -1.4366914    
      1500   340.16516     -786.274        8.7939596     -777.48004     -787.15685     -786.274        0             -1.9379954    
      1600   309.76551     -787.39693      8.0080669     -779.38887     -777.47442     -787.39693      0              0.38341118   
      1700   269.8183      -788.73427      6.9753506     -781.75892     -777.26757     -788.73427      0              0.8994918    
      1800   271.23972     -789.76255      7.0120971     -782.75045     -783.89176     -789.76255      0             -0.22857103   
      1900   290.67217     -790.21978      7.5144655     -782.70532     -780.52081     -790.21978      0              0.43749621   
      2000   298.25688     -790.18705      7.7105456     -782.4765      -779.42589     -790.18705      0              0.61095271   
      2100   307.66025     -790.10163      7.9536416     -782.14799     -787.25687     -790.10163      0             -1.0231669    
      2200   303.28848     -789.79467      7.8406226     -781.95405     -776.15739     -789.79467      0              1.1609098    
      2300   306.57881     -790.33206      7.9256844     -782.40637     -785.2085      -790.33206      0             -0.56118736   
      2400   297.64907     -790.88878      7.6948323     -783.19395     -786.93351     -790.88878      0             -0.74892956   
      2500   297.35644     -791.54304      7.6872674     -783.85577     -782.56276     -791.54304      0              0.2589547    
      2600   331.98713     -793.06964      8.582541      -784.4871      -777.44104     -793.06964      0              1.4111297    
      2700   284.92282     -793.53908      7.365833      -786.17324     -788.57585     -793.53908      0             -0.4811745    
      2800   276.98755     -794.78081      7.1606903     -787.62012     -789.08109     -794.78081      0             -0.2925922    
      2900   295.17526     -795.92409      7.6308794     -788.29321     -792.70242     -795.92409      0             -0.88304127   
      3000   300.27538     -796.33568      7.7627278     -788.57295     -788.97021     -796.33568      0             -0.079560286  
      3100   315.48327     -796.66566      8.1558826     -788.50977     -780.31868     -796.66566      0              1.6404465    
      3200   303.99089     -796.76885      7.8587812     -788.91007     -787.11789     -796.76885      0              0.35892394   
      3300   297.14048     -797.58335      7.6816842     -789.90166     -788.23232     -797.58335      0              0.33432272   
      3400   295.55107     -798.49567      7.6405947     -790.85507     -795.04988     -798.49567      0             -0.84010352   
      3500   284.46652     -798.49877      7.3540366     -791.14473     -801.37187     -798.49877      0             -2.0482088    
      3600   295.02333     -798.3449       7.6269518     -790.71794     -790.44733     -798.3449       0              0.05419588   
      3700   318.71536     -798.472        8.2394389     -790.23256     -790.20869     -798.472        0              0.0047807701 
      3800   306.61819     -798.90149      7.9267024     -790.97479     -773.3898      -798.90149      0              3.5217817    
      3900   311.98924     -800.2104       8.0655549     -792.14484     -784.80751     -800.2104       0              1.4694632    
      4000   274.59615     -800.44767      7.0988677     -793.3488      -800.91918     -800.44767      0             -1.516135     
      4100   285.35243     -800.82232      7.3769393     -793.44538     -807.60459     -800.82232      0             -2.8356936    
      4200   330.01325     -801.13835      8.5315122     -792.60684     -790.85692     -801.13835      0              0.35045892   
      4300   300.00214     -799.94643      7.7556641     -792.19076     -786.83199     -799.94643      0              1.0732114    
      4400   312.27858     -800.19146      8.0730349     -792.11843     -788.23298     -800.19146      0              0.77814599   
      4500   303.42896     -800.70915      7.8442543     -792.8649      -801.36005     -800.70915      0             -1.7013424    
      4600   291.68539     -801.59173      7.540659      -794.05107     -798.02858     -801.59173      0             -0.7965857    
      4700   273.60743     -802.11911      7.0733071     -795.0458      -801.38419     -802.11911      0             -1.269401     
      4800   293.78322     -802.68964      7.5948924     -795.09475     -784.00752     -802.68964      0              2.2204621    
      4900   288.58517     -802.14609      7.4605123     -794.68558     -790.23016     -802.14609      0              0.89229562   
      5000   333.15891     -802.63388      8.6128339     -794.02104     -784.78329     -802.63388      0              1.8500636    
      5100   311.48039     -802.39772      8.0524002     -794.34532     -802.78106     -802.39772      0             -1.6894439    
      5200   307.63811     -803.32395      7.9530693     -795.37088     -801.78132     -803.32395      0             -1.2838329    
      5300   280.09416     -803.43802      7.2410024     -796.19702     -805.31557     -803.43802      0             -1.8261912    
      5400   304.32362     -803.90068      7.867383      -796.03329     -789.64304     -803.90068      0              1.2797894    
      5500   294.12329     -803.17224      7.6036838     -795.56856     -790.39812     -803.17224      0              1.0354937    
      5600   316.38772     -803.12651      8.1792644     -794.94724     -793.23773     -803.12651      0              0.34236656   
      5700   298.80878     -803.06755      7.7248133     -795.34274     -792.15688     -803.06755      0              0.6380381    
      5800   292.56542     -803.90597      7.5634097     -796.34256     -793.40468     -803.90597      0              0.58837503   
      5900   293.6349      -804.50069      7.5910581     -796.90964     -803.61336     -804.50069      0             -1.3425687    
      6000   281.69814     -804.21299      7.2824684     -796.93052     -797.25148     -804.21299      0             -0.064278969  
      6100   301.03258     -804.31423      7.782303      -796.53193     -799.04407     -804.31423      0             -0.50311232   
      6200   298.56501     -803.90325      7.7185113     -796.18474     -790.07808     -803.90325      0              1.2229931    
      6300   316.16878     -803.91611      8.1736044     -795.74251     -790.80586     -803.91611      0              0.98867234   
      6400   316.61341     -804.06548      8.185099      -795.88038     -798.60643     -804.06548      0             -0.54595171   
      6500   289.8582      -803.86596      7.4934225     -796.37253     -801.55248     -803.86596      0             -1.0373993    
      6600   290.3995      -804.08746      7.5074163     -796.58005     -798.07299     -804.08746      0             -0.29899498   
      6700   307.70763     -804.38471      7.9548665     -796.42984     -796.59495     -804.38471      0             -0.033067183  
      6800   290.21311     -803.56447      7.5025977     -796.06187     -792.03503     -803.56447      0              0.80646339   
      6900   304.79816     -803.52661      7.879651      -795.64696     -792.12514     -803.52661      0              0.70532214   
      7000   307.89721     -803.85236      7.9597676     -795.89259     -793.51558     -803.85236      0              0.47604913   
      7100   304.37081     -804.49929      7.8686029     -796.63069     -804.51347     -804.49929      0             -1.5787013    
      7200   271.65135     -804.2391       7.0227385     -797.21636     -801.99813     -804.2391       0             -0.95765422   
      7300   296.29115     -804.73636      7.6597273     -797.07663     -794.53229     -804.73636      0              0.50955968   
      7400   307.5883      -804.68564      7.9517818     -796.73386     -790.91073     -804.68564      0              1.1662092    
      7500   286.67617     -803.86754      7.4111606     -796.45638     -791.9391      -803.86754      0              0.90468494   
      7600   290.28986     -803.8148       7.504582      -796.31022     -797.00377     -803.8148       0             -0.13889929   
      7700   299.62101     -803.84146      7.7458111     -796.09565     -798.03268     -803.84146      0             -0.38793283   
      7800   316.20536     -803.91089      8.1745501     -795.73634     -801.80927     -803.91089      0             -1.2162377    
      7900   313.65432     -803.85229      8.1086006     -795.74369     -797.55217     -803.85229      0             -0.36218815   
      8000   299.67336     -803.93945      7.7471644     -796.19228     -795.48883     -803.93945      0              0.1408832    
      8100   300.40753     -804.75857      7.7661442     -796.99243     -794.24703     -804.75857      0              0.54982607   
      8200   290.95823     -805.08338      7.5218606     -797.56152     -796.16395     -805.08338      0              0.27989511   
      8300   304.90849     -805.39708      7.8825031     -797.51457     -793.82213     -805.39708      0              0.73949391   
      8400   314.45959     -805.4831       8.1294185     -797.35368     -802.03827     -805.4831       0             -0.93819243   
      8500   310.23959     -805.08         8.020323      -797.05967     -794.85701     -805.08         0              0.44113175   
      8600   316.74603     -804.91108      8.1885275     -796.72255     -798.33299     -804.91108      0             -0.32252544   
      8700   332.5946      -805.46152      8.5982451     -796.86328     -801.11743     -805.46152      0             -0.85198855   
      8800   286.93229     -805.29478      7.4177819     -797.877       -801.62988     -805.29478      0             -0.75159637   
      8900   272.43734     -805.555        7.0430581     -798.51194     -796.3826      -805.555        0              0.42644796   
      9000   261.98207     -804.86147      6.7727681     -798.08871     -793.35786     -804.86147      0              0.94745577   
      9100   297.94816     -804.25583      7.7025646     -796.55326     -795.64683     -804.25583      0              0.18153436   
      9200   352.77021     -804.14328      9.1198256     -795.02346     -793.70151     -804.14328      0              0.26474937   
      9300   321.14007     -804.09067      8.3021225     -795.78855     -797.90059     -804.09067      0             -0.4229833    
      9400   284.29556     -805.54265      7.3496172     -798.19303     -798.37505     -805.54265      0             -0.036453698  
      9500   253.23855     -806.46745      6.5467304     -799.92072     -800.76339     -806.46745      0             -0.16876359   
      9600   249.86211     -806.33734      6.4594424     -799.87789     -803.29599     -806.33734      0             -0.68454891   
      9700   306.67501     -805.84762      7.9281712     -797.91944     -795.36474     -805.84762      0              0.51163654   
      9800   324.53299     -804.2708       8.3898362     -795.88096     -786.5801      -804.2708       0              1.8627026    
      9900   351.36755     -804.5471       9.0835642     -795.46354     -796.71551     -804.5471       0             -0.25073394   
     10000   323.68282     -805.7803       8.3678576     -797.41244     -801.22582     -805.7803       0             -0.76371461   
Loop time of 503.134 on 1 procs for 10000 steps with 201 atoms

Performance: 1.717 ns/day, 13.976 hours/ns, 19.875 timesteps/s, 3.995 katom-step/s
100.0% CPU use with 1 MPI tasks x 1 OpenMP threads

MPI task timing breakdown:
Section |  min time  |  avg time  |  max time  |%varavg| %total
---------------------------------------------------------------
Pair    | 502.88     | 502.88     | 502.88     |   0.0 | 99.95
Neigh   | 0.024858   | 0.024858   | 0.024858   |   0.0 |  0.00
Comm    | 0.013174   | 0.013174   | 0.013174   |   0.0 |  0.00
Output  | 0.037002   | 0.037002   | 0.037002   |   0.0 |  0.01
Modify  | 0.14884    | 0.14884    | 0.14884    |   0.0 |  0.03
Other   |            | 0.03178    |            |       |  0.01

Nlocal:            201 ave         201 max         201 min
Histogram: 1 0 0 0 0 0 0 0 0 0
Nghost:              0 ave           0 max           0 min
Histogram: 1 0 0 0 0 0 0 0 0 0
Neighs:              0 ave           0 max           0 min
Histogram: 1 0 0 0 0 0 0 0 0 0
FullNghs:        10868 ave       10868 max       10868 min
Histogram: 1 0 0 0 0 0 0 0 0 0

Total # of neighbors = 10868
Ave neighs/atom = 54.069652
Neighbor list builds = 44
Dangerous builds = 0

print "All done!"
All done!
Total wall time: 0:08:23
