 Comment line
 
        1139 atoms
           0 bonds
           0 angles
           0 dihedrals
           0 impropers
 
           2 atom types
           0 bond types
           0 angle types
           0 dihedral types
           0 improper types
 
  0.0000000E+00   200      xlo xhi
  0.0000000E+00   200      ylo yhi
  0.0000000E+00   200      zlo zhi
     0.0000000      0.0000000      0.0000000   xy xz yz

 Atoms

1	2	0	89.9288	100	85.9588
2	2	0	91.898	97.9535	85.8578
3	2	0	91.898	102.046	85.8578
4	2	0	93.9005	95.9226	85.8238
5	2	0	93.9093	100	85.6982
6	2	0	93.9005	104.077	85.8238
7	2	0	95.9226	93.9005	85.8238
8	2	0	95.928	97.9604	85.6464
9	2	0	95.928	102.04	85.6465
10	2	0	95.9227	106.1	85.8239
11	2	0	97.9536	91.898	85.8578
12	2	0	97.9604	95.928	85.6465
13	2	0	97.961	100	85.5852
14	2	0	97.9604	104.072	85.6465
15	2	0	97.9536	108.102	85.8578
16	2	0	100	89.9288	85.9588
17	2	0	100	93.9092	85.6982
18	2	0	100	97.9609	85.5852
19	2	0	100	102.039	85.5852
20	2	0	100	106.091	85.6983
21	2	0	100	110.071	85.9589
22	2	0	102.046	91.898	85.8578
23	2	0	102.04	95.928	85.6465
24	2	0	102.039	100	85.5852
25	2	0	102.04	104.072	85.6465
26	2	0	102.046	108.102	85.8579
27	2	0	104.077	93.9005	85.8238
28	2	0	104.072	97.9604	85.6465
29	2	0	104.072	102.04	85.6465
30	2	0	104.077	106.1	85.8239
31	2	0	106.1	95.9227	85.8239
32	2	0	106.091	100	85.6983
33	2	0	106.1	104.077	85.8239
34	2	0	108.102	97.9536	85.8579
35	2	0	108.102	102.046	85.8579
36	2	0	110.071	100	85.9589
37	2	0	87.884	100	87.8841
38	2	0	89.7595	97.821	87.7627
39	2	0	89.7595	102.179	87.7627
40	2	0	91.7537	95.7863	87.7153
41	2	0	91.9127	100	87.8557
42	2	0	91.7537	104.214	87.7154
43	2	0	93.7655	93.7655	87.7019
44	2	0	93.9249	97.9626	87.7807
45	2	0	93.9249	102.037	87.7807
46	2	0	93.7655	106.235	87.7019
47	2	0	95.7864	91.7537	87.7153
48	2	0	95.9405	95.9405	87.7579
49	2	0	95.9538	100	87.6857
50	2	0	95.9405	104.06	87.7579
51	2	0	95.7864	108.246	87.7154
52	2	0	97.821	89.7595	87.7627
53	2	0	97.9626	93.9249	87.7807
54	2	0	97.9751	97.9751	87.6584
55	2	0	97.9751	102.025	87.6585
56	2	0	97.9626	106.075	87.7807
57	2	0	97.821	110.241	87.7628
58	2	0	100	87.884	87.8841
59	2	0	100	91.9126	87.8557
60	2	0	100	95.9538	87.6857
61	2	0	100	100	87.6293
62	2	0	100	104.046	87.6857
63	2	0	100	108.087	87.8558
64	2	0	100	112.116	87.8841
65	2	0	102.179	89.7595	87.7627
66	2	0	102.037	93.9249	87.7807
67	2	0	102.025	97.9751	87.6585
68	2	0	102.025	102.025	87.6585
69	2	0	102.037	106.075	87.7807
70	2	0	102.179	110.241	87.7628
71	2	0	104.214	91.7537	87.7154
72	2	0	104.06	95.9405	87.758
73	2	0	104.046	100	87.6857
74	2	0	104.06	104.06	87.758
75	2	0	104.214	108.246	87.7154
76	2	0	106.235	93.7655	87.7019
77	2	0	106.075	97.9626	87.7807
78	2	0	106.075	102.037	87.7808
79	2	0	106.235	106.235	87.702
80	2	0	108.246	95.7864	87.7154
81	2	0	108.087	100	87.8558
82	2	0	108.246	104.214	87.7155
83	2	0	110.241	97.821	87.7628
84	2	0	110.241	102.179	87.7629
85	2	0	112.116	100	87.8842
86	2	0	85.9587	100	89.9288
87	2	0	87.7627	97.821	89.7596
88	2	0	87.7627	102.179	89.7596
89	2	0	89.715	95.7611	89.7151
90	2	0	89.8486	100	89.8487
91	2	0	89.7151	104.239	89.7151
92	2	0	91.7161	93.7327	89.6895
93	2	0	91.8166	97.8889	89.7867
94	2	0	91.8166	102.111	89.7867
95	2	0	91.7161	106.267	89.6896
96	2	0	93.7327	91.7161	89.6895
97	2	0	93.8329	95.855	89.752
98	2	0	93.902	100	89.8284
99	2	0	93.8329	104.145	89.752
100	2	0	93.7327	108.284	89.6896
101	2	0	95.7612	89.715	89.7151
102	2	0	95.8551	93.8329	89.752
103	2	0	95.9323	97.9585	89.7918
104	2	0	95.9323	102.041	89.7918
105	2	0	95.8551	106.167	89.752
106	2	0	95.7612	110.285	89.7152
107	2	0	97.821	87.7627	89.7596
108	2	0	97.8889	91.8165	89.7867
109	2	0	97.9585	95.9323	89.7918
110	2	0	97.971	100	89.7513
111	2	0	97.9585	104.068	89.7918
112	2	0	97.8889	108.183	89.7867
113	2	0	97.821	112.237	89.7596
114	2	0	100	85.9587	89.9288
115	2	0	100	89.8486	89.8487
116	2	0	100	93.902	89.8284
117	2	0	100	97.971	89.7513
118	2	0	100	102.029	89.7514
119	2	0	100	106.098	89.8284
120	2	0	100	110.151	89.8487
121	2	0	100	114.041	89.9289
122	2	0	102.179	87.7627	89.7596
123	2	0	102.111	91.8166	89.7867
124	2	0	102.041	95.9323	89.7918
125	2	0	102.029	100	89.7514
126	2	0	102.041	104.068	89.7919
127	2	0	102.111	108.183	89.7868
128	2	0	102.179	112.237	89.7596
129	2	0	104.239	89.7151	89.7151
130	2	0	104.145	93.8329	89.752
131	2	0	104.068	97.9585	89.7919
132	2	0	104.068	102.041	89.7919
133	2	0	104.145	106.167	89.7521
134	2	0	104.239	110.285	89.7152
135	2	0	106.267	91.7161	89.6896
136	2	0	106.167	95.8551	89.7521
137	2	0	106.098	100	89.8284
138	2	0	106.167	104.145	89.7521
139	2	0	106.267	108.284	89.6897
140	2	0	108.284	93.7327	89.6896
141	2	0	108.183	97.8889	89.7868
142	2	0	108.183	102.111	89.7868
143	2	0	108.284	106.267	89.6897
144	2	0	110.285	95.7612	89.7152
145	2	0	110.151	100	89.8487
146	2	0	110.285	104.239	89.7152
147	2	0	112.237	97.821	89.7597
148	2	0	112.237	102.179	89.7597
149	2	0	114.041	100	89.9289
150	2	0	85.8577	97.9535	91.898
151	2	0	85.8577	102.046	91.898
152	2	0	87.7153	95.7863	91.7537
153	2	0	87.8557	100	91.9127
154	2	0	87.7153	104.214	91.7537
155	2	0	89.6895	93.7327	91.7161
156	2	0	89.7867	97.8889	91.8166
157	2	0	89.7867	102.111	91.8166
158	2	0	89.6895	106.267	91.7161
159	2	0	91.7004	91.7004	91.7005
160	2	0	91.7751	95.8259	91.7751
161	2	0	91.8317	100	91.8317
162	2	0	91.7751	104.174	91.7752
163	2	0	91.7005	108.3	91.7005
164	2	0	93.7327	89.6895	91.7161
165	2	0	93.7932	93.7932	91.7583
166	2	0	93.8464	97.9139	91.8097
167	2	0	93.8464	102.086	91.8097
168	2	0	93.7932	106.207	91.7584
169	2	0	93.7327	110.311	91.7162
170	2	0	95.7863	87.7153	91.7537
171	2	0	95.8259	91.7751	91.7751
172	2	0	95.8748	95.8748	91.7968
173	2	0	95.9153	100	91.8374
174	2	0	95.8748	104.125	91.7968
175	2	0	95.826	108.225	91.7752
176	2	0	95.7864	112.285	91.7538
177	2	0	97.9535	85.8577	91.898
178	2	0	97.8889	89.7867	91.8166
179	2	0	97.9139	93.8464	91.8097
180	2	0	97.9554	97.9554	91.8288
181	2	0	97.9554	102.045	91.8289
182	2	0	97.9139	106.154	91.8098
183	2	0	97.8889	110.213	91.8166
184	2	0	97.9536	114.142	91.8981
185	2	0	100	87.8557	91.9126
186	2	0	100	91.8317	91.8317
187	2	0	100	95.9153	91.8374
188	2	0	100	100	91.8208
189	2	0	100	104.085	91.8374
190	2	0	100	108.168	91.8318
191	2	0	100	112.144	91.9127
192	2	0	102.046	85.8577	91.898
193	2	0	102.111	89.7867	91.8166
194	2	0	102.086	93.8464	91.8097
195	2	0	102.045	97.9554	91.8289
196	2	0	102.045	102.045	91.8289
197	2	0	102.086	106.154	91.8098
198	2	0	102.111	110.213	91.8166
199	2	0	102.046	114.142	91.8981
200	2	0	104.214	87.7153	91.7537
201	2	0	104.174	91.7751	91.7752
202	2	0	104.125	95.8748	91.7968
203	2	0	104.085	100	91.8374
204	2	0	104.125	104.125	91.7969
205	2	0	104.174	108.225	91.7752
206	2	0	104.214	112.285	91.7538
207	2	0	106.267	89.6895	91.7161
208	2	0	106.207	93.7932	91.7584
209	2	0	106.154	97.9139	91.8098
210	2	0	106.154	102.086	91.8098
211	2	0	106.207	106.207	91.7584
212	2	0	106.267	110.311	91.7162
213	2	0	108.3	91.7005	91.7005
214	2	0	108.225	95.826	91.7752
215	2	0	108.168	100	91.8318
216	2	0	108.225	104.174	91.7752
217	2	0	108.3	108.3	91.7005
218	2	0	110.311	93.7327	91.7162
219	2	0	110.213	97.8889	91.8166
220	2	0	110.213	102.111	91.8167
221	2	0	110.31	106.267	91.7162
222	2	0	112.285	95.7864	91.7538
223	2	0	112.144	100	91.9127
224	2	0	112.285	104.214	91.7538
225	2	0	114.142	97.9536	91.8981
226	2	0	114.142	102.046	91.8981
227	2	0	85.8238	95.9226	93.9006
228	2	0	85.6982	100	93.9093
229	2	0	85.8238	104.077	93.9006
230	2	0	87.7018	93.7655	93.7655
231	2	0	87.7807	97.9626	93.9249
232	2	0	87.7807	102.037	93.9249
233	2	0	87.7019	106.235	93.7655
234	2	0	89.6895	91.7161	93.7327
235	2	0	89.752	95.855	93.8329
236	2	0	89.8283	100	93.902
237	2	0	89.752	104.145	93.8329
238	2	0	89.6896	108.284	93.7327
239	2	0	91.7161	89.6895	93.7327
240	2	0	91.7583	93.7932	93.7932
241	2	0	91.8097	97.9139	93.8464
242	2	0	91.8097	102.086	93.8464
243	2	0	91.7583	106.207	93.7932
244	2	0	91.7161	110.311	93.7327
245	2	0	93.7655	87.7018	93.7655
246	2	0	93.7932	91.7583	93.7932
247	2	0	93.8232	95.8566	93.8232
248	2	0	93.8542	100	93.8541
249	2	0	93.8232	104.143	93.8232
250	2	0	93.7932	108.242	93.7933
251	2	0	93.7655	112.298	93.7656
252	2	0	95.9227	85.8238	93.9005
253	2	0	95.855	89.752	93.8329
254	2	0	95.8566	93.8232	93.8232
255	2	0	95.8882	97.9316	93.8522
256	2	0	95.8882	102.068	93.8522
257	2	0	95.8566	106.177	93.8232
258	2	0	95.8551	110.248	93.8329
259	2	0	95.9227	114.176	93.9006
260	2	0	97.9626	87.7807	93.9249
261	2	0	97.9139	91.8097	93.8464
262	2	0	97.9316	95.8882	93.8522
263	2	0	97.9485	99.9999	93.8735
264	2	0	97.9316	104.112	93.8522
265	2	0	97.9139	108.19	93.8464
266	2	0	97.9626	112.219	93.9249
267	2	0	100	85.6982	93.9093
268	2	0	100	89.8283	93.902
269	2	0	100	93.8542	93.8542
270	2	0	99.9999	97.9485	93.8735
271	2	0	99.9999	102.051	93.8735
272	2	0	100	106.146	93.8542
273	2	0	100	110.172	93.902
274	2	0	100	114.302	93.9093
275	2	0	102.037	87.7807	93.9249
276	2	0	102.086	91.8097	93.8464
277	2	0	102.068	95.8882	93.8522
278	2	0	102.051	99.9999	93.8735
279	2	0	102.068	104.112	93.8523
280	2	0	102.086	108.19	93.8464
281	2	0	102.037	112.219	93.9249
282	2	0	104.077	85.8238	93.9005
283	2	0	104.145	89.752	93.8329
284	2	0	104.143	93.8232	93.8232
285	2	0	104.112	97.9316	93.8522
286	2	0	104.112	102.068	93.8523
287	2	0	104.143	106.177	93.8233
288	2	0	104.145	110.248	93.8329
289	2	0	104.077	114.176	93.9006
290	2	0	106.235	87.7019	93.7655
291	2	0	106.207	91.7583	93.7932
292	2	0	106.177	95.8566	93.8232
293	2	0	106.146	100	93.8542
294	2	0	106.177	104.143	93.8233
295	2	0	106.207	108.242	93.7933
296	2	0	106.234	112.298	93.7656
297	2	0	108.284	89.6896	93.7327
298	2	0	108.242	93.7932	93.7932
299	2	0	108.19	97.9139	93.8464
300	2	0	108.19	102.086	93.8464
301	2	0	108.242	106.207	93.7933
302	2	0	108.284	110.31	93.7328
303	2	0	110.311	91.7161	93.7327
304	2	0	110.248	95.8551	93.8329
305	2	0	110.172	100	93.902
306	2	0	110.248	104.145	93.833
307	2	0	110.31	108.284	93.7328
308	2	0	112.298	93.7655	93.7656
309	2	0	112.219	97.9626	93.925
310	2	0	112.219	102.037	93.925
311	2	0	112.298	106.234	93.7656
312	2	0	114.176	95.9227	93.9006
313	2	0	114.302	100	93.9093
314	2	0	114.176	104.077	93.9006
315	2	0	85.8238	93.9005	95.9227
316	2	0	85.6464	97.9604	95.9281
317	2	0	85.6465	102.04	95.9281
318	2	0	85.8238	106.1	95.9227
319	2	0	87.7153	91.7537	95.7864
320	2	0	87.7579	95.9405	95.9405
321	2	0	87.6857	100	95.9538
322	2	0	87.7579	104.059	95.9405
323	2	0	87.7154	108.246	95.7864
324	2	0	89.7151	89.7151	95.7612
325	2	0	89.752	93.8329	95.8551
326	2	0	89.7918	97.9585	95.9323
327	2	0	89.7918	102.041	95.9323
328	2	0	89.752	106.167	95.8551
329	2	0	89.7152	110.285	95.7612
330	2	0	91.7537	87.7153	95.7864
331	2	0	91.7751	91.7751	95.8259
332	2	0	91.7968	95.8748	95.8748
333	2	0	91.8374	100	95.9153
334	2	0	91.7968	104.125	95.8748
335	2	0	91.7752	108.225	95.826
336	2	0	91.7538	112.285	95.7864
337	2	0	93.9005	85.8238	95.9227
338	2	0	93.8329	89.752	95.855
339	2	0	93.8232	93.8232	95.8566
340	2	0	93.8523	97.9316	95.8882
341	2	0	93.8523	102.068	95.8882
342	2	0	93.8232	106.177	95.8566
343	2	0	93.8329	110.248	95.8551
344	2	0	93.9006	114.176	95.9227
345	2	0	95.9405	87.7579	95.9405
346	2	0	95.8748	91.7968	95.8748
347	2	0	95.8816	95.8816	95.8815
348	2	0	95.8966	99.9999	95.8966
349	2	0	95.8816	104.118	95.8815
350	2	0	95.8748	108.203	95.8748
351	2	0	95.9405	112.242	95.9405
352	2	0	97.9604	85.6464	95.9281
353	2	0	97.9585	89.7918	95.9323
354	2	0	97.9316	93.8522	95.8882
355	2	0	97.9416	97.9416	95.9012
356	2	0	97.9416	102.058	95.9012
357	2	0	97.9316	106.148	95.8882
358	2	0	97.9585	110.208	95.9323
359	2	0	97.9604	114.354	95.9281
360	2	0	100	87.6857	95.9538
361	2	0	100	91.8374	95.9153
362	2	0	99.9999	95.8966	95.8966
363	2	0	99.9999	99.9999	95.9127
364	2	0	99.9999	104.103	95.8966
365	2	0	100	108.163	95.9153
366	2	0	100	112.314	95.9538
367	2	0	102.04	85.6465	95.928
368	2	0	102.041	89.7918	95.9323
369	2	0	102.068	93.8523	95.8882
370	2	0	102.058	97.9417	95.9012
371	2	0	102.058	102.058	95.9012
372	2	0	102.068	106.148	95.8882
373	2	0	102.041	110.208	95.9323
374	2	0	102.04	114.354	95.9281
375	2	0	104.059	87.7579	95.9405
376	2	0	104.125	91.7968	95.8748
377	2	0	104.118	95.8816	95.8815
378	2	0	104.103	99.9999	95.8966
379	2	0	104.118	104.118	95.8816
380	2	0	104.125	108.203	95.8748
381	2	0	104.059	112.242	95.9405
382	2	0	106.1	85.8238	95.9227
383	2	0	106.167	89.752	95.8551
384	2	0	106.177	93.8232	95.8566
385	2	0	106.148	97.9316	95.8882
386	2	0	106.148	102.068	95.8882
387	2	0	106.177	106.177	95.8566
388	2	0	106.167	110.248	95.8551
389	2	0	106.099	114.176	95.9227
390	2	0	108.246	87.7154	95.7864
391	2	0	108.225	91.7752	95.826
392	2	0	108.203	95.8748	95.8748
393	2	0	108.163	100	95.9153
394	2	0	108.203	104.125	95.8748
395	2	0	108.225	108.225	95.826
396	2	0	108.246	112.285	95.7864
397	2	0	110.285	89.7151	95.7612
398	2	0	110.248	93.8329	95.8551
399	2	0	110.208	97.9585	95.9323
400	2	0	110.208	102.041	95.9323
401	2	0	110.248	106.167	95.8551
402	2	0	110.285	110.285	95.7612
403	2	0	112.285	91.7537	95.7864
404	2	0	112.242	95.9405	95.9405
405	2	0	112.314	100	95.9538
406	2	0	112.242	104.059	95.9405
407	2	0	112.285	108.246	95.7864
408	2	0	114.176	93.9006	95.9227
409	2	0	114.354	97.9604	95.9281
410	2	0	114.354	102.04	95.9281
411	2	0	114.176	106.099	95.9227
412	2	0	85.8577	91.898	97.9536
413	2	0	85.6464	95.9281	97.9604
414	2	0	85.5852	100	97.961
415	2	0	85.6465	104.072	97.9604
416	2	0	85.8578	108.102	97.9536
417	2	0	87.7627	89.7595	97.821
418	2	0	87.7807	93.9249	97.9626
419	2	0	87.6585	97.9751	97.9751
420	2	0	87.6585	102.025	97.9751
421	2	0	87.7807	106.075	97.9626
422	2	0	87.7628	110.24	97.821
423	2	0	89.7596	87.7627	97.821
424	2	0	89.7867	91.8166	97.8889
425	2	0	89.7918	95.9323	97.9585
426	2	0	89.7514	100	97.971
427	2	0	89.7919	104.068	97.9585
428	2	0	89.7868	108.183	97.8889
429	2	0	89.7597	112.237	97.8211
430	2	0	91.898	85.8577	97.9536
431	2	0	91.8166	89.7867	97.8889
432	2	0	91.8098	93.8464	97.9139
433	2	0	91.8289	97.9554	97.9553
434	2	0	91.8289	102.045	97.9553
435	2	0	91.8098	106.154	97.9139
436	2	0	91.8167	110.213	97.8889
437	2	0	91.8981	114.142	97.9536
438	2	0	93.9249	87.7807	97.9626
439	2	0	93.8464	91.8098	97.9139
440	2	0	93.8523	95.8882	97.9315
441	2	0	93.8736	99.9999	97.9485
442	2	0	93.8523	104.112	97.9315
443	2	0	93.8465	108.19	97.9139
444	2	0	93.9249	112.219	97.9626
445	2	0	95.9281	85.6464	97.9604
446	2	0	95.9323	89.7918	97.9585
447	2	0	95.8882	93.8523	97.9315
448	2	0	95.9013	97.9417	97.9416
449	2	0	95.9013	102.058	97.9416
450	2	0	95.8882	106.148	97.9315
451	2	0	95.9323	110.208	97.9585
452	2	0	95.9281	114.354	97.9604
453	2	0	97.9751	87.6585	97.9751
454	2	0	97.9554	91.8289	97.9553
455	2	0	97.9417	95.9013	97.9416
456	2	0	97.9483	99.9999	97.9482
457	2	0	97.9417	104.099	97.9416
458	2	0	97.9554	108.171	97.9554
459	2	0	97.9751	112.342	97.9751
460	2	0	100	85.5852	97.961
461	2	0	100	89.7514	97.971
462	2	0	100	93.8736	97.9485
463	2	0	99.9999	97.9483	97.9482
464	2	0	99.9999	102.052	97.9482
465	2	0	99.9999	106.126	97.9485
466	2	0	100	110.249	97.971
467	2	0	100	114.415	97.961
468	2	0	102.025	87.6585	97.9751
469	2	0	102.045	91.8289	97.9553
470	2	0	102.058	95.9013	97.9416
471	2	0	102.052	99.9999	97.9482
472	2	0	102.058	104.099	97.9416
473	2	0	102.045	108.171	97.9554
474	2	0	102.025	112.342	97.9751
475	2	0	104.072	85.6465	97.9604
476	2	0	104.068	89.7918	97.9585
477	2	0	104.112	93.8523	97.9315
478	2	0	104.099	97.9417	97.9416
479	2	0	104.099	102.058	97.9416
480	2	0	104.112	106.148	97.9316
481	2	0	104.068	110.208	97.9585
482	2	0	104.072	114.354	97.9604
483	2	0	106.075	87.7807	97.9626
484	2	0	106.154	91.8098	97.9139
485	2	0	106.148	95.8882	97.9315
486	2	0	106.126	100	97.9485
487	2	0	106.148	104.112	97.9316
488	2	0	106.153	108.19	97.9139
489	2	0	106.075	112.219	97.9626
490	2	0	108.102	85.8578	97.9536
491	2	0	108.183	89.7867	97.8889
492	2	0	108.19	93.8464	97.9139
493	2	0	108.171	97.9554	97.9554
494	2	0	108.171	102.045	97.9554
495	2	0	108.19	106.154	97.9139
496	2	0	108.183	110.213	97.8889
497	2	0	108.102	114.142	97.9536
498	2	0	110.241	87.7628	97.821
499	2	0	110.213	91.8166	97.8889
500	2	0	110.208	95.9323	97.9585
501	2	0	110.249	100	97.971
502	2	0	110.208	104.068	97.9585
503	2	0	110.213	108.183	97.8889
504	2	0	110.24	112.237	97.821
505	2	0	112.237	89.7596	97.821
506	2	0	112.219	93.925	97.9626
507	2	0	112.342	97.9751	97.9751
508	2	0	112.341	102.025	97.9751
509	2	0	112.219	106.075	97.9626
510	2	0	112.237	110.24	97.821
511	2	0	114.142	91.8981	97.9536
512	2	0	114.354	95.9281	97.9604
513	2	0	114.415	100	97.961
514	2	0	114.354	104.072	97.9604
515	2	0	114.142	108.102	97.9536
516	2	0	85.9588	89.9288	100
517	2	0	85.6982	93.9093	100
518	2	0	85.5852	97.961	100
519	2	0	85.5852	102.039	100
520	2	0	85.6983	106.091	100
521	2	0	85.9589	110.071	100
522	2	0	87.8841	87.884	100
523	2	0	87.8557	91.9127	100
524	2	0	87.6857	95.9538	100
525	2	0	87.6293	100	100
526	2	0	87.6857	104.046	100
527	2	0	87.8558	108.087	100
528	2	0	87.8842	112.116	100
529	2	0	89.9288	85.9588	100
530	2	0	89.8487	89.8487	100
531	2	0	89.8284	93.902	100
532	2	0	89.7514	97.971	100
533	2	0	89.7514	102.029	100
534	2	0	89.8284	106.098	100
535	2	0	89.8487	110.151	100
536	2	0	89.9289	114.041	100
537	2	0	91.9127	87.8557	100
538	2	0	91.8318	91.8318	100
539	2	0	91.8374	95.9153	99.9999
540	2	0	91.8209	100	99.9999
541	2	0	91.8375	104.085	99.9999
542	2	0	91.8318	108.168	100
543	2	0	91.9127	112.144	100
544	2	0	93.9093	85.6982	100
545	2	0	93.902	89.8284	100
546	2	0	93.8542	93.8542	99.9999
547	2	0	93.8736	97.9485	99.9999
548	2	0	93.8736	102.051	99.9999
549	2	0	93.8542	106.146	99.9999
550	2	0	93.902	110.172	100
551	2	0	93.9093	114.302	100
552	2	0	95.9538	87.6857	100
553	2	0	95.9153	91.8374	99.9999
554	2	0	95.8966	95.8966	99.9999
555	2	0	95.9128	99.9999	99.9998
556	2	0	95.8967	104.103	99.9999
557	2	0	95.9153	108.163	99.9999
558	2	0	95.9538	112.314	100
559	2	0	97.961	85.5852	100
560	2	0	97.971	89.7514	100
561	2	0	97.9485	93.8736	99.9999
562	2	0	97.9483	97.9483	99.9998
563	2	0	97.9483	102.052	99.9998
564	2	0	97.9485	106.126	99.9999
565	2	0	97.971	110.249	100
566	2	0	97.961	114.415	100
567	2	0	100	87.6293	100
568	2	0	100	91.8208	99.9999
569	2	0	99.9999	95.9128	99.9998
570	2	0	99.9999	99.9999	99.9998
571	2	0	99.9999	104.087	99.9998
572	2	0	100	108.179	99.9999
573	2	0	100	112.371	100
574	2	0	102.039	85.5852	100
575	2	0	102.029	89.7514	100
576	2	0	102.051	93.8736	99.9999
577	2	0	102.052	97.9483	99.9998
578	2	0	102.051	102.052	99.9998
579	2	0	102.051	106.126	99.9999
580	2	0	102.029	110.249	100
581	2	0	102.039	114.415	100
582	2	0	104.046	87.6857	100
583	2	0	104.085	91.8374	99.9999
584	2	0	104.103	95.8967	99.9999
585	2	0	104.087	99.9999	99.9998
586	2	0	104.103	104.103	99.9999
587	2	0	104.085	108.163	99.9999
588	2	0	104.046	112.314	100
589	2	0	106.091	85.6983	100
590	2	0	106.098	89.8284	100
591	2	0	106.146	93.8542	99.9999
592	2	0	106.126	97.9485	99.9999
593	2	0	106.126	102.051	99.9999
594	2	0	106.146	106.146	99.9999
595	2	0	106.098	110.172	100
596	2	0	106.091	114.302	100
597	2	0	108.087	87.8558	100
598	2	0	108.168	91.8318	100
599	2	0	108.163	95.9153	99.9999
600	2	0	108.179	100	99.9999
601	2	0	108.162	104.085	99.9999
602	2	0	108.168	108.168	100
603	2	0	108.087	112.144	100
604	2	0	110.071	85.9589	100
605	2	0	110.151	89.8487	100
606	2	0	110.172	93.902	100
607	2	0	110.249	97.971	100
608	2	0	110.249	102.029	100
609	2	0	110.172	106.098	100
610	2	0	110.151	110.151	100
611	2	0	110.071	114.041	100
612	2	0	112.116	87.8842	100
613	2	0	112.144	91.9127	100
614	2	0	112.314	95.9538	100
615	2	0	112.371	100	100
616	2	0	112.314	104.046	100
617	2	0	112.144	108.087	100
618	2	0	112.116	112.116	100
619	2	0	114.041	89.9289	100
620	2	0	114.302	93.9093	100
621	2	0	114.415	97.961	100
622	2	0	114.415	102.039	100
623	2	0	114.302	106.091	100
624	2	0	114.041	110.071	100
625	2	0	85.8578	91.898	102.046
626	2	0	85.6465	95.928	102.04
627	2	0	85.5852	100	102.039
628	2	0	85.6465	104.072	102.04
629	2	0	85.8579	108.102	102.046
630	2	0	87.7628	89.7596	102.179
631	2	0	87.7807	93.9249	102.037
632	2	0	87.6585	97.9751	102.025
633	2	0	87.6585	102.025	102.025
634	2	0	87.7808	106.075	102.037
635	2	0	87.7629	110.24	102.179
636	2	0	89.7596	87.7627	102.179
637	2	0	89.7867	91.8166	102.111
638	2	0	89.7919	95.9323	102.041
639	2	0	89.7514	100	102.029
640	2	0	89.7919	104.068	102.041
641	2	0	89.7868	108.183	102.111
642	2	0	89.7597	112.237	102.179
643	2	0	91.898	85.8577	102.046
644	2	0	91.8166	89.7867	102.111
645	2	0	91.8098	93.8464	102.086
646	2	0	91.8289	97.9554	102.045
647	2	0	91.8289	102.045	102.045
648	2	0	91.8098	106.154	102.086
649	2	0	91.8167	110.213	102.111
650	2	0	91.8981	114.142	102.046
651	2	0	93.9249	87.7807	102.037
652	2	0	93.8464	91.8098	102.086
653	2	0	93.8523	95.8882	102.068
654	2	0	93.8736	99.9999	102.051
655	2	0	93.8523	104.112	102.068
656	2	0	93.8465	108.19	102.086
657	2	0	93.9249	112.219	102.037
658	2	0	95.928	85.6465	102.04
659	2	0	95.9323	89.7919	102.041
660	2	0	95.8882	93.8523	102.068
661	2	0	95.9013	97.9417	102.058
662	2	0	95.9013	102.058	102.058
663	2	0	95.8883	106.148	102.068
664	2	0	95.9323	110.208	102.041
665	2	0	95.9281	114.354	102.04
666	2	0	97.9751	87.6585	102.025
667	2	0	97.9554	91.8289	102.045
668	2	0	97.9417	95.9013	102.058
669	2	0	97.9483	99.9999	102.051
670	2	0	97.9417	104.099	102.058
671	2	0	97.9554	108.171	102.045
672	2	0	97.9751	112.341	102.025
673	2	0	100	85.5852	102.039
674	2	0	100	89.7514	102.029
675	2	0	100	93.8736	102.051
676	2	0	99.9999	97.9483	102.051
677	2	0	99.9999	102.051	102.051
678	2	0	99.9999	106.126	102.051
679	2	0	100	110.249	102.029
680	2	0	100	114.415	102.039
681	2	0	102.025	87.6585	102.025
682	2	0	102.045	91.8289	102.045
683	2	0	102.058	95.9013	102.058
684	2	0	102.051	99.9999	102.051
685	2	0	102.058	104.099	102.058
686	2	0	102.045	108.171	102.044
687	2	0	102.025	112.341	102.025
688	2	0	104.072	85.6465	102.04
689	2	0	104.068	89.7919	102.041
690	2	0	104.112	93.8523	102.068
691	2	0	104.099	97.9417	102.058
692	2	0	104.099	102.058	102.058
693	2	0	104.112	106.148	102.068
694	2	0	104.068	110.208	102.041
695	2	0	104.072	114.354	102.04
696	2	0	106.075	87.7807	102.037
697	2	0	106.154	91.8098	102.086
698	2	0	106.148	95.8882	102.068
699	2	0	106.126	100	102.051
700	2	0	106.148	104.112	102.068
701	2	0	106.153	108.19	102.086
702	2	0	106.075	112.219	102.037
703	2	0	108.102	85.8579	102.046
704	2	0	108.183	89.7868	102.111
705	2	0	108.19	93.8464	102.086
706	2	0	108.171	97.9554	102.044
707	2	0	108.171	102.045	102.044
708	2	0	108.19	106.154	102.086
709	2	0	108.183	110.213	102.111
710	2	0	108.102	114.142	102.046
711	2	0	110.24	87.7629	102.179
712	2	0	110.213	91.8166	102.111
713	2	0	110.208	95.9323	102.041
714	2	0	110.249	100	102.029
715	2	0	110.208	104.068	102.041
716	2	0	110.213	108.183	102.111
717	2	0	110.24	112.237	102.179
718	2	0	112.237	89.7597	102.179
719	2	0	112.219	93.9249	102.037
720	2	0	112.341	97.9751	102.025
721	2	0	112.341	102.025	102.025
722	2	0	112.219	106.075	102.037
723	2	0	112.237	110.24	102.179
724	2	0	114.142	91.8981	102.046
725	2	0	114.354	95.9281	102.04
726	2	0	114.415	100	102.039
727	2	0	114.353	104.072	102.04
728	2	0	114.142	108.102	102.046
729	2	0	85.8238	93.9005	104.077
730	2	0	85.6465	97.9604	104.072
731	2	0	85.6465	102.04	104.072
732	2	0	85.8239	106.1	104.077
733	2	0	87.7154	91.7537	104.214
734	2	0	87.758	95.9405	104.06
735	2	0	87.6858	100	104.046
736	2	0	87.758	104.059	104.06
737	2	0	87.7155	108.246	104.214
738	2	0	89.7151	89.7151	104.239
739	2	0	89.7521	93.8329	104.145
740	2	0	89.7919	97.9585	104.068
741	2	0	89.7919	102.041	104.068
742	2	0	89.7521	106.167	104.145
743	2	0	89.7152	110.285	104.239
744	2	0	91.7537	87.7154	104.214
745	2	0	91.7752	91.7752	104.174
746	2	0	91.7969	95.8748	104.125
747	2	0	91.8375	100	104.085
748	2	0	91.7969	104.125	104.125
749	2	0	91.7753	108.225	104.174
750	2	0	91.7538	112.285	104.214
751	2	0	93.9005	85.8238	104.077
752	2	0	93.8329	89.7521	104.145
753	2	0	93.8233	93.8233	104.143
754	2	0	93.8523	97.9316	104.112
755	2	0	93.8523	102.068	104.112
756	2	0	93.8233	106.177	104.143
757	2	0	93.833	110.248	104.145
758	2	0	93.9006	114.176	104.077
759	2	0	95.9405	87.758	104.06
760	2	0	95.8748	91.7969	104.125
761	2	0	95.8816	95.8816	104.118
762	2	0	95.8967	99.9999	104.103
763	2	0	95.8816	104.118	104.118
764	2	0	95.8748	108.203	104.125
765	2	0	95.9405	112.242	104.059
766	2	0	97.9604	85.6465	104.072
767	2	0	97.9585	89.7919	104.068
768	2	0	97.9316	93.8523	104.112
769	2	0	97.9417	97.9417	104.099
770	2	0	97.9417	102.058	104.098
771	2	0	97.9316	106.148	104.112
772	2	0	97.9585	110.208	104.068
773	2	0	97.9604	114.354	104.072
774	2	0	100	87.6858	104.046
775	2	0	100	91.8375	104.085
776	2	0	99.9999	95.8967	104.103
777	2	0	99.9999	99.9999	104.087
778	2	0	99.9999	104.103	104.103
779	2	0	100	108.162	104.085
780	2	0	100	112.314	104.046
781	2	0	102.04	85.6465	104.072
782	2	0	102.041	89.7919	104.068
783	2	0	102.068	93.8523	104.112
784	2	0	102.058	97.9417	104.098
785	2	0	102.058	102.058	104.098
786	2	0	102.068	106.148	104.112
787	2	0	102.041	110.208	104.068
788	2	0	102.04	114.353	104.072
789	2	0	104.059	87.758	104.06
790	2	0	104.125	91.7969	104.125
791	2	0	104.118	95.8816	104.118
792	2	0	104.103	99.9999	104.103
793	2	0	104.118	104.118	104.118
794	2	0	104.125	108.203	104.125
795	2	0	104.059	112.242	104.059
796	2	0	106.1	85.8239	104.077
797	2	0	106.167	89.7521	104.145
798	2	0	106.177	93.8233	104.143
799	2	0	106.148	97.9316	104.112
800	2	0	106.148	102.068	104.112
801	2	0	106.177	106.177	104.143
802	2	0	106.167	110.248	104.145
803	2	0	106.099	114.176	104.077
804	2	0	108.246	87.7155	104.214
805	2	0	108.225	91.7752	104.174
806	2	0	108.203	95.8748	104.125
807	2	0	108.162	100	104.085
808	2	0	108.203	104.125	104.125
809	2	0	108.225	108.225	104.174
810	2	0	108.246	112.285	104.214
811	2	0	110.285	89.7152	104.239
812	2	0	110.248	93.833	104.145
813	2	0	110.208	97.9585	104.068
814	2	0	110.208	102.041	104.068
815	2	0	110.248	106.167	104.145
816	2	0	110.285	110.285	104.239
817	2	0	112.285	91.7538	104.214
818	2	0	112.242	95.9405	104.059
819	2	0	112.314	100	104.046
820	2	0	112.242	104.059	104.059
821	2	0	112.285	108.246	104.214
822	2	0	114.176	93.9006	104.077
823	2	0	114.353	97.9604	104.072
824	2	0	114.353	102.04	104.072
825	2	0	114.176	106.099	104.077
826	2	0	85.8239	95.9227	106.1
827	2	0	85.6983	100	106.091
828	2	0	85.8239	104.077	106.1
829	2	0	87.7019	93.7655	106.235
830	2	0	87.7808	97.9626	106.075
831	2	0	87.7808	102.037	106.075
832	2	0	87.702	106.234	106.235
833	2	0	89.6896	91.7162	106.267
834	2	0	89.7521	95.8551	106.167
835	2	0	89.8285	100	106.098
836	2	0	89.7521	104.145	106.167
837	2	0	89.6897	108.284	106.267
838	2	0	91.7162	89.6896	106.267
839	2	0	91.7584	93.7933	106.207
840	2	0	91.8098	97.9139	106.154
841	2	0	91.8098	102.086	106.154
842	2	0	91.7585	106.207	106.207
843	2	0	91.7162	110.31	106.267
844	2	0	93.7655	87.7019	106.235
845	2	0	93.7933	91.7584	106.207
846	2	0	93.8233	95.8566	106.177
847	2	0	93.8543	100	106.146
848	2	0	93.8233	104.143	106.177
849	2	0	93.7933	108.242	106.207
850	2	0	93.7656	112.298	106.234
851	2	0	95.9227	85.8239	106.1
852	2	0	95.8551	89.7521	106.167
853	2	0	95.8566	93.8233	106.177
854	2	0	95.8883	97.9316	106.148
855	2	0	95.8883	102.068	106.148
856	2	0	95.8567	106.177	106.177
857	2	0	95.8551	110.248	106.167
858	2	0	95.9227	114.176	106.099
859	2	0	97.9626	87.7808	106.075
860	2	0	97.9139	91.8098	106.154
861	2	0	97.9316	95.8882	106.148
862	2	0	97.9485	99.9999	106.126
863	2	0	97.9316	104.112	106.148
864	2	0	97.9139	108.19	106.153
865	2	0	97.9626	112.219	106.075
866	2	0	100	85.6983	106.091
867	2	0	100	89.8284	106.098
868	2	0	100	93.8543	106.146
869	2	0	99.9999	97.9485	106.126
870	2	0	99.9999	102.051	106.126
871	2	0	100	106.146	106.146
872	2	0	100	110.172	106.098
873	2	0	100	114.302	106.091
874	2	0	102.037	87.7808	106.075
875	2	0	102.086	91.8098	106.154
876	2	0	102.068	95.8883	106.148
877	2	0	102.051	99.9999	106.126
878	2	0	102.068	104.112	106.148
879	2	0	102.086	108.19	106.153
880	2	0	102.037	112.219	106.075
881	2	0	104.077	85.8239	106.1
882	2	0	104.145	89.7521	106.167
883	2	0	104.143	93.8233	106.177
884	2	0	104.112	97.9316	106.148
885	2	0	104.112	102.068	106.148
886	2	0	104.143	106.177	106.177
887	2	0	104.145	110.248	106.167
888	2	0	104.077	114.176	106.099
889	2	0	106.234	87.702	106.235
890	2	0	106.207	91.7584	106.207
891	2	0	106.177	95.8566	106.177
892	2	0	106.146	100	106.146
893	2	0	106.177	104.143	106.177
894	2	0	106.207	108.242	106.207
895	2	0	106.234	112.298	106.234
896	2	0	108.284	89.6897	106.267
897	2	0	108.242	93.7933	106.207
898	2	0	108.19	97.9139	106.153
899	2	0	108.19	102.086	106.153
900	2	0	108.242	106.207	106.207
901	2	0	108.284	110.31	106.267
902	2	0	110.31	91.7162	106.267
903	2	0	110.248	95.8551	106.167
904	2	0	110.172	100	106.098
905	2	0	110.248	104.145	106.167
906	2	0	110.31	108.284	106.267
907	2	0	112.298	93.7656	106.235
908	2	0	112.219	97.9626	106.075
909	2	0	112.219	102.037	106.075
910	2	0	112.298	106.234	106.234
911	2	0	114.176	95.9227	106.099
912	2	0	114.302	100	106.091
913	2	0	114.176	104.077	106.099
914	2	0	85.8579	97.9536	108.102
915	2	0	85.8579	102.046	108.102
916	2	0	87.7154	95.7864	108.246
917	2	0	87.8558	100	108.087
918	2	0	87.7155	104.214	108.246
919	2	0	89.6896	93.7327	108.284
920	2	0	89.7868	97.8889	108.183
921	2	0	89.7868	102.111	108.183
922	2	0	89.6897	106.267	108.284
923	2	0	91.7005	91.7005	108.3
924	2	0	91.7752	95.826	108.225
925	2	0	91.8318	100	108.168
926	2	0	91.7753	104.174	108.225
927	2	0	91.7006	108.3	108.3
928	2	0	93.7328	89.6896	108.284
929	2	0	93.7933	93.7933	108.242
930	2	0	93.8465	97.9139	108.19
931	2	0	93.8465	102.086	108.19
932	2	0	93.7933	106.207	108.242
933	2	0	93.7328	110.31	108.284
934	2	0	95.7864	87.7154	108.246
935	2	0	95.826	91.7752	108.225
936	2	0	95.8748	95.8748	108.203
937	2	0	95.9154	100	108.163
938	2	0	95.8748	104.125	108.203
939	2	0	95.826	108.225	108.225
940	2	0	95.7864	112.285	108.246
941	2	0	97.9536	85.8579	108.102
942	2	0	97.8889	89.7868	108.183
943	2	0	97.9139	93.8465	108.19
944	2	0	97.9554	97.9554	108.171
945	2	0	97.9554	102.045	108.171
946	2	0	97.9139	106.153	108.19
947	2	0	97.8889	110.213	108.183
948	2	0	97.9536	114.142	108.102
949	2	0	100	87.8558	108.087
950	2	0	100	91.8318	108.168
951	2	0	100	95.9153	108.163
952	2	0	100	100	108.179
953	2	0	100	104.085	108.162
954	2	0	100	108.168	108.168
955	2	0	100	112.144	108.087
956	2	0	102.046	85.8579	108.102
957	2	0	102.111	89.7868	108.183
958	2	0	102.086	93.8465	108.19
959	2	0	102.045	97.9554	108.171
960	2	0	102.045	102.045	108.171