LAMMPS (2 Aug 2023 - Update 2)
OMP_NUM_THREADS environment is not set. Defaulting to 1 thread. (src/comm.cpp:98)
  using 1 OpenMP thread(s) per MPI task
Loaded 1 plugins from C:\Program Files\LAMMPS 64-bit 2Aug2023 with GUI\plugins
# Initialization

units		  metal
dimension 	      3
boundary	  f f f
atom_style	 atomic


# Atom Definition

read_data atom_definition.txt
Reading data file ...
  orthogonal box = (-0 -0 -0) to (200 200 200)
  1 by 1 by 1 MPI processor grid
  reading atoms ...
  1139 atoms
  read_data CPU = 0.009 seconds


# Settings

pair_style mliap model nn Si.nn.mliap.model descriptor so3 Si.nn.mliap.descriptor
SO3 keyword rcutfac 5.0 
SO3 keyword nmax 3 
SO3 keyword lmax 4 
SO3 keyword alpha 2.0 
SO3 keyword nelems 1 
SO3 keyword elems Si 
SO3 keyword radelems 0.5 
SO3 keyword welems 14 
pair_coeff * * Si Si


timestep         0.001
velocity         all create 300 1551 mom yes rot yes dist gaussian
fix              2 all nvt temp 300 300 $(100.0*dt) drag 0.0 tchain 1
fix              2 all nvt temp 300 300 0.10000000000000000555 drag 0.0 tchain 1
fix              3 all recenter INIT INIT INIT

thermo_style custom step temp pe ke etotal enthalpy epair emol press
thermo 100


# Run a simulation

run              10000
Neighbor list info ...
  update: every = 1 steps, delay = 0 steps, check = yes
  max neighbors/atom: 2000, page size: 100000
  master list distance cutoff = 7
  ghost atom cutoff = 7
  binsize = 3.5, bins = 58 58 58
  1 neighbor lists, perpetual/occasional/extra = 1 0 0
  (1) pair mliap, perpetual
      attributes: full, newton on
      pair build: full/bin/atomonly
      stencil: full/bin/3d
      bin: standard
Per MPI rank memory allocation (min/avg/max) = 506.1 | 506.1 | 506.1 Mbytes
   Step          Temp          PotEng         KinEng         TotEng        Enthalpy        E_pair         E_mol          Press     
         0   300           -4249.8719      44.129414     -4205.7425     -4737.8343     -4249.8719      0             -106.56311    
       100   291.42521     -4252.7728      42.868079     -4209.9048     -4079.5677     -4252.7728      0              26.102878    
       200   284.46873     -4258.3214      41.844793     -4216.4766     -4175.1777     -4258.3214      0              8.2710195    
       300   280.61107     -4260.208       41.27734      -4218.9307     -4146.0755     -4260.208       0              14.590863    
       400   295.43435     -4259.9961      43.457815     -4216.5382     -4147.0776     -4259.9961      0              13.911022    
       500   303.20681     -4256.8819      44.601129     -4212.2807     -4137.394      -4256.8819      0              14.997717    
       600   314.72158     -4254.8128      46.294929     -4208.5178     -4149.7902     -4254.8128      0              11.761499    
       700   303.69477     -4252.1341      44.672907     -4207.4612     -4185.8351     -4252.1341      0              4.3311073    
       800   283.3214      -4248.8974      41.676025     -4207.2214     -4223.7811     -4248.8974      0             -3.3164571    
       900   291.52577     -4245.936       42.882871     -4203.0531     -4226.9572     -4245.936       0             -4.7873147    
      1000   311.70423     -4242.6144      45.851083     -4196.7633     -4190.5209     -4242.6144      0              1.2501883    
      1100   312.45553     -4239.7824      45.961597     -4193.8208     -4182.1697     -4239.7824      0              2.3333768    
      1200   302.39628     -4239.7012      44.481901     -4195.2193     -4211.103      -4239.7012      0             -3.1810661    
      1300   286.96061     -4238.7977      42.211345     -4196.5864     -4216.3264     -4238.7977      0             -3.9533654    
      1400   298.48843     -4238.1802      43.907065     -4194.2731     -4201.7397     -4238.1802      0             -1.4953495    
      1500   313.72131     -4236.8841      46.147792     -4190.7363     -4192.7908     -4236.8841      0             -0.41146969   
      1600   303.3818      -4234.3125      44.62687      -4189.6857     -4192.5523     -4234.3125      0             -0.57410029   
      1700   297.75517     -4233.8692      43.799203     -4190.07       -4205.9413     -4233.8692      0             -3.1785822    
      1800   288.99339     -4232.3364      42.510363     -4189.826      -4190.7357     -4232.3364      0             -0.18217378   
      1900   304.50515     -4232.3336      44.792113     -4187.5415     -4210.806      -4232.3336      0             -4.6592336    
      2000   313.62837     -4231.7945      46.13412      -4185.6604     -4184.1212     -4231.7945      0              0.30825777   
      2100   299.67898     -4231.4939      44.082192     -4187.4117     -4195.3756     -4231.4939      0             -1.5949561    
      2200   286.01691     -4231.7368      42.072529     -4189.6643     -4199.1998     -4231.7368      0             -1.9097013    
      2300   298.01366     -4233.3377      43.837226     -4189.5004     -4207.9531     -4233.3377      0             -3.6955589    
      2400   303.0251      -4232.2101      44.5744       -4187.6357     -4184.539      -4232.2101      0              0.62019625   
      2500   305.25795     -4231.1338      44.902848     -4186.2309     -4180.8342     -4231.1338      0              1.0808222    
      2600   298.46748     -4230.1803      43.903982     -4186.2763     -4190.7244     -4230.1803      0             -0.89082506   
      2700   303.05243     -4230.5454      44.578419     -4185.967      -4201.6885     -4230.5454      0             -3.1485783    
      2800   311.04937     -4231.4258      45.754754     -4185.671      -4180.1091     -4231.4258      0              1.1139037    
      2900   295.50885     -4230.3884      43.468774     -4186.9196     -4195.0775     -4230.3884      0             -1.6337929    
      3000   302.74587     -4232.2915      44.533326     -4187.7582     -4197.2836     -4232.2915      0             -1.9076822    
      3100   293.52423     -4231.1322      43.176841     -4187.9554     -4187.4073     -4231.1322      0              0.10975808   
      3200   302.11768     -4231.7672      44.440921     -4187.3263     -4191.3837     -4231.7672      0             -0.81258726   
      3300   306.38451     -4231.6469      45.068562     -4186.5783     -4199.7108     -4231.6469      0             -2.6300718    
      3400   301.72699     -4230.9578      44.383451     -4186.5744     -4173.2292     -4230.9578      0              2.6726677    
      3500   292.27386     -4230.5301      42.992913     -4187.5372     -4193.2621     -4230.5301      0             -1.1465479    
      3600   294.94974     -4229.8369      43.38653      -4186.4504     -4194.2481     -4229.8369      0             -1.5616653    
      3700   310.27313     -4229.2444      45.64057      -4183.6038     -4207.7866     -4229.2444      0             -4.8431427    
      3800   312.91016     -4228.1611      46.028473     -4182.1327     -4175.2708     -4228.1611      0              1.3742405    
      3900   300.3368      -4227.8305      44.178956     -4183.6515     -4189.7475     -4227.8305      0             -1.2208608    
      4000   288.84335     -4228.1722      42.488293     -4185.684      -4172.2173     -4228.1722      0              2.6969881    
      4100   291.42654     -4228.3883      42.868275     -4185.5201     -4185.7344     -4228.3883      0             -0.042925336  
      4200   306.44226     -4228.1621      45.077057     -4183.085      -4195.67       -4228.1621      0             -2.520414     
      4300   310.36477     -4227.4783      45.65405      -4181.8242     -4178.8676     -4227.4783      0              0.59213547   
      4400   307.58049     -4228.5332      45.244489     -4183.2887     -4184.3513     -4228.5332      0             -0.21279615   
      4500   293.74076     -4229.3551      43.208692     -4186.1464     -4186.8131     -4229.3551      0             -0.1335085    
      4600   292.26057     -4230.0229      42.990958     -4187.0319     -4200.9766     -4230.0229      0             -2.7927252    
      4700   306.01273     -4230.4339      45.013875     -4185.42       -4184.0925     -4230.4339      0              0.26586337   
      4800   306.9506      -4229.6108      45.151833     -4184.4589     -4184.8616     -4229.6108      0             -0.080652288  
      4900   294.50571     -4228.1314      43.321214     -4184.8102     -4173.0146     -4228.1314      0              2.3623331    
      5000   301.14959     -4229.5402      44.298515     -4185.2417     -4198.011      -4229.5402      0             -2.5573267    
      5100   304.81907     -4230.8029      44.83829      -4185.9646     -4175.9777     -4230.8029      0              2.0001005    
      5200   296.28101     -4230.6687      43.582358     -4187.0863     -4186.881      -4230.6687      0              0.041117448  
      5300   294.81141     -4230.1239      43.366182     -4186.7577     -4195.3976     -4230.1239      0             -1.7303376    
      5400   306.01711     -4230.0956      45.014518     -4185.0811     -4194.4767     -4230.0956      0             -1.8816815    
      5500   310.41422     -4229.4414      45.661325     -4183.7801     -4191.7361     -4229.4414      0             -1.5933649    
      5600   309.42844     -4229.7506      45.516319     -4184.2343     -4186.921      -4229.7506      0             -0.53808002   
      5700   295.3734      -4229.6629      43.44885      -4186.214      -4184.9273     -4229.6629      0              0.25768861   
      5800   293.87721     -4229.7021      43.228764     -4186.4733     -4187.9714     -4229.7021      0             -0.30002646   
      5900   296.93332     -4228.4624      43.678311     -4184.7841     -4192.3779     -4228.4624      0             -1.5208318    
      6000   314.0002      -4229.4319      46.188816     -4183.2431     -4174.128      -4229.4319      0              1.825504     
      6100   297.26347     -4228.4153      43.726875     -4184.6884     -4187.0303     -4228.4153      0             -0.46901108   
      6200   286.38484     -4228.3283      42.12665      -4186.2017     -4187.0152     -4228.3283      0             -0.16293127   
      6300   291.51732     -4228.0736      42.881628     -4185.192      -4168.4275     -4228.0736      0              3.3574658    
      6400   295.46893     -4226.4498      43.462902     -4182.9869     -4182.9722     -4226.4498      0              0.0029366805 
      6500   313.70031     -4227.6458      46.144702     -4181.5011     -4181.0073     -4227.6458      0              0.098893901  
      6600   293.3536      -4226.8089      43.15174      -4183.6572     -4189.2034     -4226.8089      0             -1.110757     
      6700   288.45573     -4227.43        42.431274     -4184.9987     -4172.8005     -4227.43        0              2.4429661    
      6800   295.20631     -4227.1078      43.42427      -4183.6836     -4185.7252     -4227.1078      0             -0.40888482   
      6900   301.05082     -4225.2253      44.283987     -4180.9413     -4186.1922     -4225.2253      0             -1.0516235    
      7000   314.13111     -4225.6186      46.208072     -4179.4106     -4178.1222     -4225.6186      0              0.25801658   
      7100   293.89433     -4224.8329      43.231282     -4181.6016     -4184.5321     -4224.8329      0             -0.58689988   
      7200   299.94346     -4227.1084      44.121097     -4182.9873     -4175.7426     -4227.1084      0              1.4509119    
      7300   298.64843     -4227.534       43.930599     -4183.6034     -4183.8667     -4227.534       0             -0.05272892   
      7400   295.49754     -4226.9276      43.467111     -4183.4605     -4179.8823     -4226.9276      0              0.71661778   
      7500   295.25845     -4226.0942      43.43194      -4182.6623     -4181.5782     -4226.0942      0              0.21711002   
      7600   301.24643     -4226.101       44.312762     -4181.7883     -4180.8561     -4226.101       0              0.18668805   
      7700   307.94462     -4227.1706      45.298052     -4181.8726     -4179.0801     -4227.1706      0              0.55926186   
      7800   300.0965      -4228.1157      44.143609     -4183.9721     -4182.9812     -4228.1157      0              0.1984411    
      7900   289.09533     -4228.6647      42.525358     -4186.1393     -4175.0758     -4228.6647      0              2.2157138    
      8000   298.70422     -4230.0685      43.938806     -4186.1297     -4185.2818     -4230.0685      0              0.16980965   
      8100   290.67533     -4227.3604      42.757773     -4184.6026     -4190.7258     -4227.3604      0             -1.2262974    
      8200   310.33755     -4227.3683      45.650047     -4181.7182     -4174.0991     -4227.3683      0              1.5259055    
      8300   307.3071      -4226.3074      45.204274     -4181.1032     -4189.1025     -4226.3074      0             -1.6020401    
      8400   296.85373     -4227.0717      43.666604     -4183.4051     -4169.558      -4227.0717      0              2.7731863    
      8500   291.35249     -4228.2888      42.857382     -4185.4315     -4187.8061     -4228.2888      0             -0.47556784   
      8600   296.7899      -4229.1709      43.657214     -4185.5137     -4178.5349     -4229.1709      0              1.3976475    
      8700   297.02826     -4228.0911      43.692277     -4184.3989     -4183.9305     -4228.0911      0              0.093802504  
      8800   307.55251     -4227.9697      45.240372     -4182.7293     -4178.9583     -4227.9697      0              0.75522587   
      8900   307.86667     -4227.9849      45.286585     -4182.6983     -4180.1962     -4227.9849      0              0.50109779   
      9000   294.06976     -4227.4467      43.257086     -4184.1897     -4187.067      -4227.4467      0             -0.57624988   
      9100   287.79022     -4227.3163      42.333379     -4184.983      -4167.4941     -4227.3163      0              3.5025223    
      9200   296.01957     -4227.5428      43.543901     -4183.9989     -4188.6255     -4227.5428      0             -0.92656916   
      9300   309.08272     -4227.1868      45.465464     -4181.7214     -4176.3241     -4227.1868      0              1.0809267    
      9400   306.0497      -4227.408       45.019313     -4182.3887     -4175.3385     -4227.408       0              1.4119591    
      9500   279.32638     -4226.9304      41.088364     -4185.8421     -4186.6712     -4226.9304      0             -0.16604577   
      9600   285.41154     -4227.4846      41.983479     -4185.5011     -4187.2689     -4227.4846      0             -0.35404145   
      9700   312.78756     -4227.8487      46.010438     -4181.8382     -4169.6807     -4227.8487      0              2.4348213    
      9800   310.73138     -4226.5742      45.707978     -4180.8662     -4181.8784     -4226.5742      0             -0.20270304   
      9900   294.383       -4226.285       43.303164     -4182.9818     -4179.913      -4226.285       0              0.61459871   
     10000   286.53587     -4226.0376      42.148867     -4183.8887     -4181.9941     -4226.0376      0              0.37944493   
Loop time of 6829.63 on 1 procs for 10000 steps with 1139 atoms

Performance: 0.127 ns/day, 189.712 hours/ns, 1.464 timesteps/s, 1.668 katom-step/s
86.0% CPU use with 1 MPI tasks x 1 OpenMP threads

MPI task timing breakdown:
Section |  min time  |  avg time  |  max time  |%varavg| %total
---------------------------------------------------------------
Pair    | 6828.8     | 6828.8     | 6828.8     |   0.0 | 99.99
Neigh   | 0.25579    | 0.25579    | 0.25579    |   0.0 |  0.00
Comm    | 0.015963   | 0.015963   | 0.015963   |   0.0 |  0.00
Output  | 0.040894   | 0.040894   | 0.040894   |   0.0 |  0.00
Modify  | 0.43903    | 0.43903    | 0.43903    |   0.0 |  0.01
Other   |            | 0.08792    |            |       |  0.00

Nlocal:           1139 ave        1139 max        1139 min
Histogram: 1 0 0 0 0 0 0 0 0 0
Nghost:              0 ave           0 max           0 min
Histogram: 1 0 0 0 0 0 0 0 0 0
Neighs:              0 ave           0 max           0 min
Histogram: 1 0 0 0 0 0 0 0 0 0
FullNghs:        38568 ave       38568 max       38568 min
Histogram: 1 0 0 0 0 0 0 0 0 0

Total # of neighbors = 38568
Ave neighs/atom = 33.861282
Neighbor list builds = 110
Dangerous builds = 0

print "All done!"
All done!
Total wall time: 1:53:50
