LAMMPS (2 Aug 2023 - Update 2)
OMP_NUM_THREADS environment is not set. Defaulting to 1 thread. (src/comm.cpp:98)
  using 1 OpenMP thread(s) per MPI task
Loaded 1 plugins from C:\Program Files\LAMMPS 64-bit 2Aug2023 with GUI\plugins
# Initialization

units		  metal
dimension 	      3
boundary	  f f f
atom_style	 charge


# Atom Definition

read_data atom_definition.txt
Reading data file ...
  triclinic box = (0 0 0) to (200 200 200) with tilt (0 0 0)
  1 by 1 by 1 MPI processor grid
  reading atoms ...
  405 atoms
  read_data CPU = 0.003 seconds
mass		1 63.54

# Settings

pair_style	comb
pair_coeff	* * ffield.comb Cu
Reading comb potential file ffield.comb with DATE: 2011-02-22


timestep         0.001
velocity         all create 300 1551 mom yes rot yes dist gaussian
fix              2 all nvt temp 300 300 $(100.0*dt) drag 0.0 tchain 1
fix              2 all nvt temp 300 300 0.10000000000000000555 drag 0.0 tchain 1
fix              3 all recenter INIT INIT INIT

thermo_style custom step temp pe ke etotal enthalpy epair emol press
thermo 100


# Run a simulation

run              10000
Neighbor list info ...
  update: every = 1 steps, delay = 0 steps, check = yes
  max neighbors/atom: 2000, page size: 100000
  master list distance cutoff = 14
  ghost atom cutoff = 14
  binsize = 7, bins = 29 29 29
  1 neighbor lists, perpetual/occasional/extra = 1 0 0
  (1) pair comb, perpetual
      attributes: full, newton on
      pair build: full/bin/atomonly
      stencil: full/bin/3d
      bin: standard
Per MPI rank memory allocation (min/avg/max) = 7.324 | 7.324 | 7.324 Mbytes
   Step          Temp          PotEng         KinEng         TotEng        Enthalpy        E_pair         E_mol          Press     
         0   300           -1016.4035      15.66633      -1000.7372     -2203.8043     -1016.4035      0             -240.94072    
       100   585.60334     -1180.1889      30.58085      -1149.608      -1485.4173     -1180.1889      0             -67.253212    
       200   117.0771      -1227.2017      6.1138949     -1221.0878     -1542.9461     -1227.2017      0             -64.45923     
       300   87.37475      -1247.9556      4.5628054     -1243.3928     -1457.4805     -1247.9556      0             -42.875793    
       400   70.667919     -1259.5654      3.6903564     -1255.8751     -1354.8592     -1259.5654      0             -19.823759    
       500   30.829993     -1261.5124      1.6099761     -1259.9024     -1223.9277     -1261.5124      0              7.2047183    
       600   2.4283683     -1260.0198      0.12681206    -1259.893      -1155.3871     -1260.0198      0              20.929608    
       700   156.5288      -1261.3992      8.1741058     -1253.2251     -1281.3774     -1261.3992      0             -5.6381182    
       800   898.49989     -1228.8267      46.920651     -1181.9061     -1464.2787     -1228.8267      0             -56.551338    
       900   293.83394     -1182.8157      15.344331     -1167.4713     -1715.1072     -1182.8157      0             -109.67616    
      1000   795.14103     -1232.199       41.523138     -1190.6759     -1413.086      -1232.199       0             -44.542546    
      1100   144.13895     -1257.5998      7.5270941     -1250.0727     -1226.1181     -1257.5998      0              4.797422     
      1200   27.978456     -1258.647       1.4610657     -1257.186      -1163.6668     -1258.647       0              18.729281    
      1300   57.233455     -1260.6205      2.9887939     -1257.6317     -1233.8322     -1260.6205      0              4.7663748    
      1400   112.54246     -1257.6556      5.8770907     -1251.7785     -1360.2923     -1257.6556      0             -21.732287    
      1500   529.03524     -1248.4168      27.626801     -1220.79       -1360.468      -1248.4168      0             -27.973603    
      1600   692.84841     -1231.8         36.181305     -1195.6187     -1228.4795     -1231.8         0             -6.5811003    
      1700   137.76373     -1228.9895      7.1941735     -1221.7953     -1185.3236     -1228.9895      0              7.304264     
      1800   186.9969      -1237.863       9.7651835     -1228.0978     -1207.1482     -1237.863       0              4.1956139    
      1900   300.98537     -1245.0971      15.717787     -1229.3793     -1269.0715     -1245.0971      0             -7.9492282    
      2000   357.46433     -1249.415       18.66718      -1230.7478     -1267.6366     -1249.415       0             -7.3878064    
      2100   266.40065     -1250.7366      13.911735     -1236.8249     -1222.3043     -1250.7366      0              2.9080576    
      2200   188.60609     -1248.7339      9.8492171     -1238.8846     -1188.7749     -1248.7339      0              10.035577    
      2300   229.42349     -1245.3803      11.980747     -1233.3995     -1223.1621     -1245.3803      0              2.0502706    
      2400   409.09218     -1239.8899      21.363243     -1218.5266     -1270.1239     -1239.8899      0             -10.333499    
      2500   423.00696     -1234.1356      22.089888     -1212.0457     -1291.1911     -1234.1356      0             -15.850618    
      2600   285.60271     -1235.4622      14.914487     -1220.5477     -1197.0458     -1235.4622      0              4.7067814    
      2700   256.86193     -1239.9936      13.413612     -1226.58       -1172.4017     -1239.9936      0              10.850399    
      2800   289.66726     -1244.0193      15.126743     -1228.8926     -1231.5389     -1244.0193      0             -0.52997599   
      2900   322.44585     -1247.499       16.838477     -1230.6605     -1267.532      -1247.499       0             -7.3843395    
      3000   261.5036      -1247.3473      13.656005     -1233.6913     -1239.1883     -1247.3473      0             -1.1008855    
      3100   205.46134     -1243.9527      10.729417     -1233.2233     -1197.1662     -1243.9527      0              7.2212127    
      3200   297.80444     -1241.6226      15.551675     -1226.0709     -1206.5528     -1241.6226      0              3.9089415    
      3300   416.64234     -1236.2439      21.757521     -1214.4863     -1239.6719     -1236.2439      0             -5.0439554    
      3400   394.09899     -1237.0614      20.580282     -1216.4811     -1268.2985     -1237.0614      0             -10.377582    
      3500   271.68718     -1241.7679      14.187803     -1227.5801     -1244.1883     -1241.7679      0             -3.3261519    
      3600   220.73632     -1245.5029      11.527093     -1233.9758     -1209.8101     -1245.5029      0              4.8397246    
      3700   252.92186     -1247.1375      13.207857     -1233.9297     -1213.9528     -1247.1375      0              4.0008009    
      3800   318.19567     -1245.4512      16.616528     -1228.8346     -1227.2951     -1245.4512      0              0.30833019   
      3900   344.84035     -1242.1934      18.007942     -1224.1854     -1247.1818     -1242.1934      0             -4.6055377    
      4000   293.34018     -1238.9744      15.318547     -1223.6558     -1235.89       -1238.9744      0             -2.4501565    
      4100   300.89018     -1239.0211      15.712816     -1223.3083     -1188.7693     -1239.0211      0              6.917201     
      4200   337.11626     -1240.5977      17.604581     -1222.9931     -1235.5847     -1240.5977      0             -2.5217462    
      4300   325.75438     -1243.446       17.011251     -1226.4348     -1243.3098     -1243.446       0             -3.3795984    
      4400   261.46012     -1245.3972      13.653735     -1231.7435     -1242.9853     -1245.3972      0             -2.2514189    
      4500   230.0063      -1245.072       12.011182     -1233.0608     -1213.294      -1245.072       0              3.9587306    
      4600   277.96897     -1243.4797      14.515845     -1228.9638     -1205.8332     -1243.4797      0              4.6324176    
      4700   360.23783     -1240.9871      18.812015     -1222.1751     -1235.2852     -1240.9871      0             -2.6255916    
      4800   362.20778     -1240.8785      18.914888     -1221.9636     -1251.1589     -1240.8785      0             -5.8469986    
      4900   276.89295     -1241.5324      14.459654     -1227.0728     -1243.4        -1241.5324      0             -3.2698808    
      5000   244.49969     -1242.0796      12.768043     -1229.3116     -1201.7663     -1242.0796      0              5.516559     
      5100   292.98829     -1242.532       15.30017      -1227.2319     -1212.7482     -1242.532       0              2.9006748    
      5200   360.61676     -1243.1147      18.831803     -1224.2829     -1222.9426     -1243.1147      0              0.26843685   
      5300   325.00512     -1243.4327      16.972125     -1226.4605     -1258.0022     -1243.4327      0             -6.3169197    
      5400   245.08984     -1243.5076      12.798861     -1230.7088     -1247.2845     -1243.5076      0             -3.3196662    
      5500   254.22811     -1244.0312      13.276071     -1230.7551     -1208.2183     -1244.0312      0              4.5134902    
      5600   314.46366     -1242.5072      16.421638     -1226.0856     -1200.9908     -1242.5072      0              5.0257963    
      5700   362.84559     -1240.4811      18.948195     -1221.5329     -1234.4409     -1240.4811      0             -2.5851255    
      5800   319.56696     -1240.8459      16.688138     -1224.1577     -1250.1901     -1240.8459      0             -5.2135576    
      5900   256.78596     -1242.1313      13.409645     -1228.7216     -1248.3592     -1242.1313      0             -3.9328547    
      6000   258.52013     -1243.5273      13.500205     -1230.0271     -1211.451      -1243.5273      0              3.720267     
      6100   298.38903     -1244.2448      15.582203     -1228.6626     -1201.7947     -1244.2448      0              5.3809061    
      6200   317.74048     -1243.4656      16.592757     -1226.8728     -1213.2799     -1243.4656      0              2.7222794    
      6300   296.91738     -1242.0132      15.505352     -1226.5079     -1252.9369     -1242.0132      0             -5.2930045    
      6400   287.5626      -1240.9802      15.016835     -1225.9634     -1249.6179     -1240.9802      0             -4.7373328    
      6500   326.17018     -1241.1332      17.032965     -1224.1003     -1213.4907     -1241.1332      0              2.1247993    
      6600   343.34467     -1242.0055      17.929836     -1224.0756     -1195.3881     -1242.0055      0              5.7453112    
      6700   301.69556     -1243.8429      15.754873     -1228.088      -1221.1713     -1243.8429      0              1.3852274    
      6800   263.54731     -1245.4389      13.76273      -1231.6761     -1243.4373     -1245.4389      0             -2.3554347    
      6900   243.71026     -1244.3041      12.726818     -1231.5773     -1244.2075     -1244.3041      0             -2.5294846    
      7000   297.00758     -1242.3376      15.510062     -1226.8275     -1215.8925     -1242.3376      0              2.1899754    
      7100   371.35606     -1240.5319      19.392621     -1221.1392     -1201.946      -1240.5319      0              3.8438794    
      7200   347.96963     -1241.1575      18.171356     -1222.9861     -1220.0918     -1241.1575      0              0.57964287   
      7300   286.5341      -1243.5535      14.963126     -1228.5904     -1249.6725     -1243.5535      0             -4.2221586    
      7400   262.8695      -1245.0038      13.727334     -1231.2765     -1245.396      -1245.0038      0             -2.827747     
      7500   271.05327     -1244.1763      14.1547       -1230.0216     -1212.1455     -1244.1763      0              3.5800998    
      7600   324.92476     -1243.3626      16.967928     -1226.3947     -1200.6504     -1243.3626      0              5.155849     
      7700   336.65933     -1241.875       17.58072      -1224.2943     -1215.4059     -1241.875       0              1.7800911    
      7800   309.07334     -1241.138       16.140149     -1224.9979     -1244.4277     -1241.138       0             -3.8912622    
      7900   306.24846     -1242.5795      15.992631     -1226.5869     -1250.5725     -1242.5795      0             -4.8036454    
      8000   307.05026     -1243.4491      16.034502     -1227.4146     -1218.2961     -1243.4491      0              1.8261905    
      8100   309.91791     -1244.524       16.184254     -1228.3397     -1207.5088     -1244.524       0              4.1718425    
      8200   275.5407      -1244.1946      14.389038     -1229.8056     -1199.378      -1244.1946      0              6.0937969    
      8300   279.343       -1244.1954      14.587598     -1229.6078     -1233.6013     -1244.1954      0             -0.79978667   
      8400   290.40005     -1241.9914      15.16501      -1226.8264     -1262.8104     -1241.9914      0             -7.2065826    
      8500   334.61295     -1240.3595      17.473856     -1222.8856     -1238.7528     -1240.3595      0             -3.1777504    
      8600   355.74606     -1241.6635      18.57745      -1223.086      -1204.7587     -1241.6635      0              3.6704407    
      8700   283.19271     -1243.2893      14.788634     -1228.5007     -1197.9984     -1243.2893      0              6.1087553    
      8800   245.79097     -1244.6076      12.835475     -1231.7721     -1233.2326     -1244.6076      0             -0.29248458   
      8900   254.93782     -1244.0091      13.313133     -1230.6959     -1250.3269     -1244.0091      0             -3.9315424    
      9000   324.1132      -1243.0042      16.925547     -1226.0787     -1240.6093     -1243.0042      0             -2.9100738    
      9100   358.20266     -1241.6765      18.705736     -1222.9708     -1212.5992     -1241.6765      0              2.0771415    
      9200   296.54571     -1241.5967      15.485943     -1226.1107     -1195.0209     -1241.5967      0              6.2264316    
      9300   257.23745     -1242.8983      13.433222     -1229.465      -1228.3021     -1242.8983      0              0.23290794   
      9400   263.8031      -1243.3578      13.776088     -1229.5817     -1253.9142     -1243.3578      0             -4.8731316    
      9500   326.86205     -1243.7437      17.069096     -1226.6746     -1248.1056     -1243.7437      0             -4.292031     
      9600   350.13468     -1243.1156      18.284418     -1224.8312     -1210.3277     -1243.1156      0              2.9046533    
      9700   312.32616     -1243.1489      16.310015     -1226.8389     -1205.3916     -1243.1489      0              4.295291     
      9800   265.52403     -1242.9787      13.865957     -1229.1128     -1216.4067     -1242.9787      0              2.5446722    
      9900   286.25808     -1243.6365      14.948711     -1228.6878     -1251.3336     -1243.6365      0             -4.5353286    
     10000   310.54743     -1242.4969      16.217128     -1226.2798     -1234.3901     -1242.4969      0             -1.6242846    
Loop time of 227.515 on 1 procs for 10000 steps with 405 atoms

Performance: 3.798 ns/day, 6.320 hours/ns, 43.953 timesteps/s, 17.801 katom-step/s
100.0% CPU use with 1 MPI tasks x 1 OpenMP threads

MPI task timing breakdown:
Section |  min time  |  avg time  |  max time  |%varavg| %total
---------------------------------------------------------------
Pair    | 227.27     | 227.27     | 227.27     |   0.0 | 99.89
Neigh   | 0.026221   | 0.026221   | 0.026221   |   0.0 |  0.01
Comm    | 0.003798   | 0.003798   | 0.003798   |   0.0 |  0.00
Output  | 0.044318   | 0.044318   | 0.044318   |   0.0 |  0.02
Modify  | 0.15251    | 0.15251    | 0.15251    |   0.0 |  0.07
Other   |            | 0.0224     |            |       |  0.01

Nlocal:            405 ave         405 max         405 min
Histogram: 1 0 0 0 0 0 0 0 0 0
Nghost:              0 ave           0 max           0 min
Histogram: 1 0 0 0 0 0 0 0 0 0
Neighs:              0 ave           0 max           0 min
Histogram: 1 0 0 0 0 0 0 0 0 0
FullNghs:       127024 ave      127024 max      127024 min
Histogram: 1 0 0 0 0 0 0 0 0 0

Total # of neighbors = 127024
Ave neighs/atom = 313.63951
Neighbor list builds = 21
Dangerous builds = 0

print "All done!"
All done!
Total wall time: 0:03:47
