LAMMPS (2 Aug 2023 - Update 2)
OMP_NUM_THREADS environment is not set. Defaulting to 1 thread. (src/comm.cpp:98)
  using 1 OpenMP thread(s) per MPI task
Loaded 1 plugins from C:\Program Files\LAMMPS 64-bit 2Aug2023 with GUI\plugins
# Initialization

units		  metal
dimension 	      3
boundary	  f f f
atom_style	 atomic


# Atom Definition

read_data atom_definition.txt
Reading data file ...
  orthogonal box = (-0 -0 -0) to (200 200 200)
  1 by 1 by 1 MPI processor grid
  reading atoms ...
  711 atoms
  read_data CPU = 0.008 seconds


# Settings

pair_style meam/c
pair_coeff	* * Au-Lee.meam Au Au-Lee-para.meam Au


timestep         0.001
velocity         all create 300 1551 mom yes rot yes dist gaussian
fix              2 all nvt temp 300 300 $(100.0*dt) drag 0.0 tchain 1
fix              2 all nvt temp 300 300 0.10000000000000000555 drag 0.0 tchain 1
fix              3 all recenter INIT INIT INIT

thermo_style custom step temp pe ke etotal enthalpy epair emol press
thermo 100


# Run a simulation

run              10000
Neighbor list info ...
  update: every = 1 steps, delay = 0 steps, check = yes
  max neighbors/atom: 2000, page size: 100000
  master list distance cutoff = 6.8
  ghost atom cutoff = 6.8
  binsize = 3.4, bins = 59 59 59
  2 neighbor lists, perpetual/occasional/extra = 2 0 0
  (1) pair meam/c, perpetual
      attributes: full, newton on
      pair build: full/bin/atomonly
      stencil: full/bin/3d
      bin: standard
  (2) pair meam/c, perpetual, half/full from (1)
      attributes: half, newton on
      pair build: halffull/newton
      stencil: none
      bin: none
Per MPI rank memory allocation (min/avg/max) = 10.01 | 10.01 | 10.01 Mbytes
   Step          Temp          PotEng         KinEng         TotEng        Enthalpy        E_pair         E_mol          Press     
         0   300           -2613.3733      27.532411     -2585.8409     -3002.8959     -2613.3733      0             -83.524461    
       100   162.0948      -2598.8204      14.876202     -2583.9442     -2592.3673     -2598.8204      0             -1.686919     
       200   352.80956     -2600.09        32.378992     -2567.711      -2455.9761     -2600.09        0              22.377365    
       300   421.47362     -2592.1334      38.680616     -2553.4528     -2409.2718     -2592.1334      0              28.875437    
       400   320.84825     -2588.8143      29.445753     -2559.3685     -2347.1333     -2588.8143      0              42.504795    
       500   294.72683     -2597.9957      27.048468     -2570.9473     -2446.8243     -2597.9957      0              24.858361    
       600   254.17292     -2604.7192      23.326644     -2581.3925     -2521.7125     -2604.7192      0              11.952249    
       700   230.75804     -2605.457       21.17775      -2584.2792     -2657.9651     -2605.457       0             -14.757226    
       800   266.55161     -2602.2378      24.462695     -2577.7751     -2731.0475     -2602.2378      0             -30.696183    
       900   334.92038     -2595.2028      30.737218     -2564.4655     -2711.1686     -2595.2028      0             -29.380528    
      1000   375.17767     -2588.8586      34.431819     -2554.4268     -2607.4124     -2588.8586      0             -10.611544    
      1100   343.29163     -2591.9737      31.505488     -2560.4682     -2502.3573     -2591.9737      0              11.637988    
      1200   280.08517     -2600.2322      25.704734     -2574.5275     -2508.6432     -2600.2322      0              13.194782    
      1300   244.87766     -2605.5405      22.473574     -2583.0669     -2563.8619     -2605.5405      0              3.8462179    
      1400   248.60924     -2605.7809      22.816039     -2582.9649     -2551.761      -2605.7809      0              6.2492676    
      1500   294.02072     -2601.9584      26.983664     -2574.9747     -2509.3776     -2601.9584      0              13.137272    
      1600   349.86563     -2596.7598      32.108815     -2564.651      -2528.2284     -2596.7598      0              7.2944314    
      1700   339.30107     -2593.0104      31.139255     -2561.8712     -2640.1255     -2593.0104      0             -15.672165    
      1800   295.46263     -2593.3097      27.115995     -2566.1937     -2709.6886     -2593.3097      0             -28.738023    
      1900   305.17405     -2598.2471      28.007258     -2570.2399     -2640.0949     -2598.2471      0             -13.990006    
      2000   283.46307     -2600.8741      26.014739     -2574.8594     -2567.1295     -2600.8741      0              1.5480854    
      2100   273.72822     -2601.8511      25.121326     -2576.7298     -2563.7946     -2601.8511      0              2.5905594    
      2200   295.05549     -2601.4433      27.07863      -2574.3647     -2532.0263     -2601.4433      0              8.4791988    
      2300   309.10617     -2599.2229      28.368127     -2570.8548     -2484.1625     -2599.2229      0              17.362045    
      2400   318.58039     -2598.2677      29.237621     -2569.0301     -2475.4579     -2598.2677      0              18.739897    
      2500   301.17588     -2597.7425      27.640327     -2570.1021     -2527.8066     -2597.7425      0              8.4706206    
      2600   296.63571     -2599.4328      27.223654     -2572.2091     -2622.9033     -2599.4328      0             -10.15262     
      2700   277.21385     -2598.6912      25.441218     -2573.25       -2693.9388     -2598.6912      0             -24.170605    
      2800   291.556       -2597.6907      26.757465     -2570.9333     -2650.1384     -2597.6907      0             -15.862566    
      2900   331.17355     -2598.078       30.393355     -2567.6846     -2572.5056     -2598.078       0             -0.96550966   
      3000   318.35987     -2597.9236      29.217383     -2568.7062     -2547.2314     -2597.9236      0              4.3008021    
      3100   288.24166     -2599.0157      26.453293     -2572.5624     -2534.7521     -2599.0157      0              7.572335     
      3200   269.30597     -2599.9858      24.715476     -2575.2703     -2511.653      -2599.9858      0              12.740767    
      3300   300.36611     -2601.9352      27.56601      -2574.3692     -2517.0726     -2601.9352      0              11.474905    
      3400   308.28054     -2600.4509      28.292355     -2572.1586     -2545.0549     -2600.4509      0              5.4280952    
      3500   310.22438     -2598.2548      28.47075      -2569.784      -2596.8724     -2598.2548      0             -5.4250401    
      3600   313.34133     -2596.7297      28.756807     -2567.9729     -2643.5675     -2596.7297      0             -15.13948     
      3700   301.74528     -2596.2113      27.692583     -2568.5187     -2638.3446     -2596.2113      0             -13.984173    
      3800   312.18269     -2599.069       28.650474     -2570.4185     -2610.9302     -2599.069       0             -8.1133609    
      3900   288.56556     -2599.5295      26.483019     -2573.0465     -2576.0617     -2599.5295      0             -0.60385963   
      4000   286.15726     -2600.0304      26.261997     -2573.7684     -2562.0904     -2600.0304      0              2.3387803    
      4100   302.15016     -2600.2676      27.729741     -2572.5379     -2526.2373     -2600.2676      0              9.272708     
      4200   306.32033     -2599.3268      28.112457     -2571.2144     -2486.6754     -2599.3268      0              16.930801    
      4300   300.36771     -2598.4565      27.566157     -2570.8904     -2512.903      -2598.4565      0              11.613253    
      4400   298.73257     -2598.72        27.416093     -2571.3039     -2579.3349     -2598.72        0             -1.608384     
      4500   291.76874     -2598.5607      26.77699      -2571.7837     -2636.6704     -2598.5607      0             -12.994994    
      4600   292.62019     -2597.8236      26.855131     -2570.9685     -2641.0899     -2597.8236      0             -14.043366    
      4700   314.41793     -2597.9405      28.855612     -2569.0849     -2601.5771     -2597.9405      0             -6.5072835    
      4800   306.69656     -2597.3902      28.146985     -2569.2432     -2566.9279     -2597.3902      0              0.46369796   
      4900   303.5961      -2598.9774      27.862442     -2571.1149     -2571.7559     -2598.9774      0             -0.12835661   
      5000   292.25852     -2600.0388      26.821939     -2573.2169     -2549.8419     -2600.0388      0              4.6813526    
      5100   290.06846     -2600.4523      26.620946     -2573.8313     -2515.5807     -2600.4523      0              11.66596     
      5200   293.59995     -2600.0535      26.945048     -2573.1085     -2513.2933     -2600.0535      0              11.979309    
      5300   305.87843     -2599.6415      28.071902     -2571.5696     -2561.8401     -2599.6415      0              1.9485404    
      5400   289.3193      -2597.0339      26.552193     -2570.4817     -2612.4557     -2597.0339      0             -8.4062191    
      5500   312.40839     -2597.8201      28.671188     -2569.1489     -2635.7204     -2597.8201      0             -13.332407    
      5600   304.16745     -2597.4516      27.914877     -2569.5367     -2605.6715     -2597.4516      0             -7.2367998    
      5700   302.59789     -2598.5931      27.770832     -2570.8223     -2579.2878     -2598.5931      0             -1.6954176    
      5800   295.70952     -2599.5964      27.138653     -2572.4577     -2568.6352     -2599.5964      0              0.76555709   
      5900   286.97764     -2599.8579      26.337287     -2573.5206     -2556.1281     -2599.8579      0              3.4832216    
      6000   299.59475     -2600.3825      27.495219     -2572.8873     -2532.4607     -2600.3825      0              8.0963197    
      6100   300.38748     -2598.8986      27.567971     -2571.3306     -2523.0808     -2598.8986      0              9.6630949    
      6200   311.38517     -2598.096       28.577281     -2569.5188     -2547.1795     -2598.096       0              4.4739375    
      6300   299.52169     -2597.6304      27.488514     -2570.1419     -2590.6488     -2597.6304      0             -4.1069637    
      6400   292.51945     -2598.7349      26.845886     -2571.889      -2642.006      -2598.7349      0             -14.04247     
      6500   294.6188      -2599.4386      27.038553     -2572.4001     -2615.8632     -2599.4386      0             -8.7044568    
      6600   298.2988      -2599.2735      27.376284     -2571.8972     -2567.3433     -2599.2735      0              0.91203128   
      6700   304.03744     -2599.1898      27.902946     -2571.2868     -2558.705      -2599.1898      0              2.5198002    
      6800   301.53799     -2598.5222      27.673559     -2570.8487     -2539.1167     -2598.5222      0              6.3550327    
      6900   305.59384     -2598.7712      28.045784     -2570.7254     -2539.7946     -2598.7712      0              6.1945703    
      7000   307.16769     -2599.467       28.190223     -2571.2768     -2512.3531     -2599.467       0              11.800768    
      7100   299.27667     -2600.4678      27.466027     -2573.0018     -2563.1197     -2600.4678      0              1.9791042    
      7200   266.78413     -2598.6503      24.484034     -2574.1663     -2627.9605     -2598.6503      0             -10.773486    
      7300   295.75852     -2598.039       27.14315      -2570.8959     -2621.1253     -2598.039       0             -10.059558    
      7400   323.66757     -2596.4464      29.704495     -2566.7419     -2593.3323     -2596.4464      0             -5.3253028    
      7500   318.89996     -2595.8406      29.26695      -2566.5736     -2573.6557     -2595.8406      0             -1.4183284    
      7600   309.79288     -2598.0491      28.431149     -2569.618      -2555.3971     -2598.0491      0              2.8480385    
      7700   287.67394     -2600.7226      26.401191     -2574.3214     -2545.9443     -2600.7226      0              5.6831345    
      7800   282.73331     -2602.6776      25.947765     -2576.7298     -2566.5114     -2602.6776      0              2.0464706    
      7900   278.07224     -2600.9733      25.519997     -2575.4533     -2538.0742     -2600.9733      0              7.4859818    
      8000   308.99561     -2599.3081      28.35798      -2570.9501     -2537.1969     -2599.3081      0              6.7598172    
      8100   321.35126     -2597.0074      29.491916     -2567.5155     -2603.0849     -2597.0074      0             -7.1235463    
      8200   307.38978     -2595.7346      28.210605     -2567.524      -2626.766      -2595.7346      0             -11.864522    
      8300   304.66213     -2597.1608      27.960276     -2569.2006     -2595.6556     -2597.1608      0             -5.298199     
      8400   302.08808     -2599.7283      27.724044     -2572.0043     -2596.9118     -2599.7283      0             -4.9882875    
      8500   277.28749     -2599.8444      25.447977     -2574.3964     -2577.3831     -2599.8444      0             -0.59815044   
      8600   298.83414     -2601.3474      27.425415     -2573.922      -2542.9121     -2601.3474      0              6.2104151    
      8700   295.82284     -2600.0882      27.149054     -2572.9392     -2527.6051     -2600.0882      0              9.0791421    
      8800   305.07869     -2599.2267      27.998506     -2571.2282     -2537.7395     -2599.2267      0              6.7068551    
      8900   306.52595     -2598.272       28.131328     -2570.1406     -2539.0873     -2598.272       0              6.219111     
      9000   296.20398     -2597.7996      27.184032     -2570.6156     -2583.6013     -2597.7996      0             -2.6006772    
      9100   296.1337      -2597.7978      27.177583     -2570.6202     -2644.0775     -2597.7978      0             -14.71145     
      9200   306.56495     -2597.7473      28.134907     -2569.6124     -2623.8494     -2597.7473      0             -10.862165    
      9300   309.73461     -2598.1996      28.425802     -2569.7738     -2572.9213     -2598.1996      0             -0.63035372   
      9400   292.15492     -2598.4442      26.812431     -2571.6318     -2546.5806     -2598.4442      0              5.0170576    
      9500   293.78007     -2599.3934      26.961579     -2572.4318     -2558.5991     -2599.3934      0              2.7702953    
      9600   294.92624     -2599.3717      27.066768     -2572.3049     -2538.5568     -2599.3717      0              6.7588092    
      9700   306.28221     -2599.8617      28.108959     -2571.7528     -2536.6115     -2599.8617      0              7.0378119    
      9800   296.5596      -2598.7841      27.216669     -2571.5674     -2553.7941     -2598.7841      0              3.5594941    
      9900   302.68978     -2599.1793      27.779264     -2571.4001     -2585.2334     -2599.1793      0             -2.7704189    
     10000   299.35656     -2599.1313      27.473359     -2571.658      -2617.3254     -2599.1313      0             -9.1459204    
Loop time of 84.4531 on 1 procs for 10000 steps with 711 atoms

Performance: 10.231 ns/day, 2.346 hours/ns, 118.409 timesteps/s, 84.189 katom-step/s
99.9% CPU use with 1 MPI tasks x 1 OpenMP threads

MPI task timing breakdown:
Section |  min time  |  avg time  |  max time  |%varavg| %total
---------------------------------------------------------------
Pair    | 83.999     | 83.999     | 83.999     |   0.0 | 99.46
Neigh   | 0          | 0          | 0          |   0.0 |  0.00
Comm    | 0.005978   | 0.005978   | 0.005978   |   0.0 |  0.01
Output  | 0.048405   | 0.048405   | 0.048405   |   0.0 |  0.06
Modify  | 0.34425    | 0.34425    | 0.34425    |   0.0 |  0.41
Other   |            | 0.05517    |            |       |  0.07

Nlocal:            711 ave         711 max         711 min
Histogram: 1 0 0 0 0 0 0 0 0 0
Nghost:              0 ave           0 max           0 min
Histogram: 1 0 0 0 0 0 0 0 0 0
Neighs:          20208 ave       20208 max       20208 min
Histogram: 1 0 0 0 0 0 0 0 0 0
FullNghs:        40416 ave       40416 max       40416 min
Histogram: 1 0 0 0 0 0 0 0 0 0

Total # of neighbors = 40416
Ave neighs/atom = 56.843882
Neighbor list builds = 0
Dangerous builds = 0

print "All done!"
All done!
Total wall time: 0:01:24
