LAMMPS (2 Aug 2023 - Update 2)
OMP_NUM_THREADS environment is not set. Defaulting to 1 thread. (src/comm.cpp:98)
  using 1 OpenMP thread(s) per MPI task
Loaded 1 plugins from C:\Program Files\LAMMPS 64-bit 2Aug2023 with GUI\plugins
# Initialization

units		  metal
dimension 	      3
boundary	  f f f
atom_style	 atomic


# Atom Definition

read_data atom_definition.txt
Reading data file ...
  orthogonal box = (-0 -0 -0) to (200 200 200)
  1 by 1 by 1 MPI processor grid
  reading atoms ...
  201 atoms
  read_data CPU = 0.002 seconds


# Settings

pair_style tersoff
pair_coeff * * Au.tersoff.modc Au


timestep         0.001
velocity         all create 300 1551 mom yes rot yes dist gaussian
fix              2 all nvt temp 300 300 $(100.0*dt) drag 0.0 tchain 1
fix              2 all nvt temp 300 300 0.10000000000000000555 drag 0.0 tchain 1
fix              3 all recenter INIT INIT INIT

thermo_style custom step temp pe ke etotal enthalpy epair emol press
thermo 100


# Run a simulation

run              10000
Neighbor list info ...
  update: every = 1 steps, delay = 0 steps, check = yes
  max neighbors/atom: 2000, page size: 100000
  master list distance cutoff = 5.35
  ghost atom cutoff = 5.35
  binsize = 2.675, bins = 75 75 75
  1 neighbor lists, perpetual/occasional/extra = 1 0 0
  (1) pair tersoff, perpetual
      attributes: full, newton on
      pair build: full/bin/atomonly
      stencil: full/bin/3d
      bin: standard
Per MPI rank memory allocation (min/avg/max) = 4.987 | 4.987 | 4.987 Mbytes
   Step          Temp          PotEng         KinEng         TotEng        Enthalpy        E_pair         E_mol          Press     
         0   300           -582.12708      7.7556087     -574.37147     -1098.0454     -582.12708      0             -104.87726    
       100   1111.1263     -643.59842      28.724868     -614.87355     -972.59701     -643.59842      0             -71.642016    
       200   198.30449     -676.43757      5.1265734     -671.31099     -846.39293     -676.43757      0             -35.064021    
       300   162.13002     -694.53737      4.19139       -690.34598     -817.21571     -694.53737      0             -25.408461    
       400   327.05898     -722.82639      8.4551383     -714.37125     -764.71826     -722.82639      0             -10.0831      
       500   426.60262     -760.46903      11.028543     -749.44049     -719.9676      -760.46903      0              5.9025953    
       600   387.61207     -807.25256      10.020559     -797.232       -736.8863      -807.25256      0              12.085558    
       700   326.9188      -850.11135      8.4515144     -841.65984     -745.57813     -850.11135      0              19.242481    
       800   369.87377     -897.83694      9.5619873     -888.27495     -766.26497     -897.83694      0              24.43519     
       900   294.08962     -947.00415      7.6028134     -939.40134     -787.35169     -947.00415      0              30.451297    
      1000   205.1979      -982.95291      5.304782      -977.64812     -809.61396     -982.95291      0              33.652549    
      1100   213.73286     -1012.7226      5.5254281     -1007.1972     -879.64753     -1012.7226      0              25.544632    
      1200   284.64096     -1046.5413      7.3585462     -1039.1827     -888.42621     -1046.5413      0              30.192314    
      1300   242.03426     -1076.898       6.2570767     -1070.6409     -957.38694     -1076.898       0              22.681602    
      1400   249.82826     -1100.9521      6.4585674     -1094.4936     -970.57268     -1100.9521      0              24.817892    
      1500   331.05363     -1131.8694      8.5584081     -1123.311      -988.71671     -1131.8694      0              26.955484    
      1600   257.78779     -1161.0928      6.6643373     -1154.4285     -1051.3774     -1161.0928      0              20.638255    
      1700   202.36268     -1181.3116      5.2314859     -1176.0801     -1093.196      -1181.3116      0              16.599375    
      1800   251.22543     -1199.2062      6.4946872     -1192.7115     -1097.4525     -1199.2062      0              19.07771     
      1900   233.12511     -1214.3937      6.0267571     -1208.3669     -1143.9386     -1214.3937      0              12.903185    
      2000   219.54519     -1225.6478      5.6756887     -1219.9721     -1178.711      -1225.6478      0              8.2634438    
      2100   242.29659     -1235.6352      6.2638584     -1229.3714     -1224.0833     -1235.6352      0              1.0590553    
      2200   223.03409     -1242.9092      5.7658837     -1237.1434     -1219.6151     -1242.9092      0              3.5104254    
      2300   209.80546     -1246.9306      5.4238969     -1241.5067     -1249.7972     -1246.9306      0             -1.6603444    
      2400   239.38103     -1248.7204      6.1884854     -1242.5319     -1242.503      -1248.7204      0              0.0057993364 
      2500   377.26853     -1250.9858      9.7531571     -1241.2326     -1214.3236     -1250.9858      0              5.3891338    
      2600   359.4409      -1252.6272      9.2922765     -1243.3349     -1240.6169     -1252.6272      0              0.54435783   
      2700   236.56996     -1253.6626      6.1158134     -1247.5467     -1259.3477     -1253.6626      0             -2.3634055    
      2800   243.61976     -1255.3133      6.2980651     -1249.0152     -1258.9592     -1255.3133      0             -1.9915011    
      2900   279.74065     -1255.3045      7.2318634     -1248.0726     -1228.7058     -1255.3045      0              3.8786271    
      3000   318.32886     -1253.9196      8.229447      -1245.6901     -1219.6573     -1253.9196      0              5.2136432    
      3100   360.02223     -1253.6163      9.3073052     -1244.309      -1254.0071     -1253.6163      0             -1.9422731    
      3200   318.89738     -1253.9268      8.2441443     -1245.6826     -1195.9764     -1253.9268      0              9.954779     
      3300   299.20595     -1255.7332      7.7350809     -1247.9981     -1251.8878     -1255.7332      0             -0.7789985    
      3400   306.75512     -1258.7238      7.9302422     -1250.7936     -1282.7848     -1258.7238      0             -6.4069553    
      3500   259.76857     -1260.2889      6.7155446     -1253.5734     -1245.288      -1260.2889      0              1.6593223    
      3600   244.90037     -1260.7871      6.3311713     -1254.4559     -1260.965      -1260.7871      0             -1.3035831    
      3700   278.095       -1260.1037      7.1893201     -1252.9144     -1257.9481     -1260.1037      0             -1.0081079    
      3800   361.42153     -1259.6415      9.34348       -1250.2981     -1269.7794     -1259.6415      0             -3.9015731    
      3900   375.22242     -1259.9796      9.7002609     -1250.2793     -1205.5874     -1259.9796      0              8.9505533    
      4000   288.46092     -1261.332       7.4573002     -1253.8747     -1253.0202     -1261.332       0              0.17111805   
      4100   226.45527     -1262.6519      5.8543281     -1256.7976     -1249.7581     -1262.6519      0              1.4098007    
      4200   243.81166     -1263.4357      6.3030262     -1257.1327     -1265.2761     -1263.4357      0             -1.6308867    
      4300   328.87393     -1263.8577      8.5020584     -1255.3556     -1261.8691     -1263.8577      0             -1.3044704    
      4400   365.01717     -1264.0001      9.4364344     -1254.5637     -1249.4917     -1264.0001      0              1.0157827    
      4500   301.13001     -1264.0252      7.7848219     -1256.2403     -1273.7672     -1264.0252      0             -3.5101355    
      4600   287.29486     -1265.8679      7.4271549     -1258.4407     -1270.2572     -1265.8679      0             -2.3665037    
      4700   259.72098     -1266.4515      6.7143142     -1259.7372     -1286.3063     -1266.4515      0             -5.3210537    
      4800   274.47453     -1266.1923      7.0957234     -1259.0966     -1239.4689     -1266.1923      0              3.930871     
      4900   315.66227     -1265.4725      8.16051       -1257.312      -1258.8328     -1265.4725      0             -0.30457827   
      5000   350.4418      -1265.49        9.0596315     -1256.4303     -1249.415      -1265.49        0              1.4049837    
      5100   317.4271      -1265.9741      8.2061345     -1257.768      -1314.0086     -1265.9741      0             -11.263416    
      5200   283.88073     -1267.2785      7.3388928     -1259.9396     -1268.0059     -1267.2785      0             -1.6154628    
      5300   279.02471     -1268.8274      7.213355      -1261.614      -1265.9137     -1268.8274      0             -0.86111134   
      5400   281.88066     -1269.6273      7.2871869     -1262.3401     -1271.7577     -1269.6273      0             -1.8860794    
      5500   324.61693     -1270.3777      8.3920064     -1261.9857     -1251.6424     -1270.3777      0              2.071469     
      5600   311.41429     -1269.635       8.0506912     -1261.5843     -1235.8224     -1269.635       0              5.1593929    
      5700   288.25003     -1269.1359      7.4518483     -1261.6841     -1257.5616     -1269.1359      0              0.82562519   
      5800   285.02031     -1269.0464      7.3683534     -1261.678      -1220.868      -1269.0464      0              8.1731071    
      5900   294.97039     -1268.8667      7.625583      -1261.2411     -1269.8681     -1268.8667      0             -1.7277352    
      6000   290.04009     -1267.9912      7.4981249     -1260.4931     -1247.5739     -1267.9912      0              2.5873455    
      6100   314.06872     -1267.7949      8.1193136     -1259.6756     -1248.2888     -1267.7949      0              2.2804555    
      6200   295.42325     -1267.6742      7.6372903     -1260.0369     -1254.2032     -1267.6742      0              1.1683151    
      6300   301.238       -1268.9376      7.7876135     -1261.15       -1241.7232     -1268.9376      0              3.8906537    
      6400   278.70939     -1269.3479      7.2052032     -1262.1427     -1252.3671     -1269.3479      0              1.957773     
      6500   281.47838     -1269.4248      7.2767872     -1262.148      -1293.2844     -1269.4248      0             -6.2357512    
      6600   319.46978     -1269.5033      8.2589421     -1261.2444     -1259.8839     -1269.5033      0              0.27247411   
      6700   324.11806     -1268.7282      8.3791094     -1260.3491     -1251.6931     -1268.7282      0              1.7335476    
      6800   303.19111     -1268.1225      7.8381055     -1260.2844     -1273.1238     -1268.1225      0             -2.571369     
      6900   333.88108     -1269.7603      8.6315035     -1261.1288     -1255.4086     -1269.7603      0              1.1456061    
      7000   271.913       -1269.8258      7.0295028     -1262.7963     -1250.4454     -1269.8258      0              2.4735369    
      7100   268.25047     -1270.6851      6.934819      -1263.7503     -1299.8791     -1270.6851      0             -7.2355894    
      7200   272.06848     -1270.6095      7.0335223     -1263.576      -1286.9206     -1270.6095      0             -4.6752763    
      7300   315.56008     -1270.3775      8.1578682     -1262.2196     -1265.4895     -1270.3775      0             -0.65487254   
      7400   315.00971     -1269.1358      8.1436402     -1260.9922     -1265.0864     -1269.1358      0             -0.81996628   
      7500   317.97459     -1269.2258      8.2202882     -1261.0055     -1260.8523     -1269.2258      0              0.030688322  
      7600   301.27601     -1269.6181      7.7885961     -1261.8295     -1294.2269     -1269.6181      0             -6.488303     
      7700   278.1801      -1269.3852      7.19152       -1262.1937     -1271.4846     -1269.3852      0             -1.8607233    
      7800   309.22906     -1269.8125      7.9941985     -1261.8183     -1203.2703     -1269.8125      0              11.725538    
      7900   291.5706      -1269.1108      7.5376916     -1261.5731     -1250.6431     -1269.1108      0              2.1889879    
      8000   312.96066     -1269.3975      8.0906679     -1261.3068     -1293.603      -1269.3975      0             -6.4680181    
      8100   312.9077      -1269.5861      8.089299      -1261.4968     -1282.5679     -1269.5861      0             -4.2199541    
      8200   312.69729     -1270.0773      8.0838594     -1261.9935     -1279.4188     -1270.0773      0             -3.4898191    
      8300   305.22291     -1269.9441      7.8906314     -1262.0535     -1253.1458     -1269.9441      0              1.7839559    
      8400   311.43271     -1269.7229      8.0511675     -1261.6717     -1262.7817     -1269.7229      0             -0.22230522   
      8500   301.75489     -1268.9773      7.8009761     -1261.1763     -1240.054      -1268.9773      0              4.230201     
      8600   296.21289     -1268.9836      7.6577043     -1261.3259     -1312.8674     -1268.9836      0             -10.322321    
      8700   308.69085     -1269.7439      7.9802847     -1261.7636     -1257.8793     -1269.7439      0              0.77791845   
      8800   279.4043      -1269.4184      7.2231682     -1262.1953     -1285.228      -1269.4184      0             -4.6128232    
      8900   290.7747      -1269.4912      7.5171159     -1261.9741     -1233.1522     -1269.4912      0              5.772218     
      9000   316.22922     -1269.4824      8.175167      -1261.3072     -1263.0702     -1269.4824      0             -0.35308023   
      9100   306.80057     -1268.5626      7.9314171     -1260.6312     -1276.4611     -1268.5626      0             -3.1702782    
      9200   304.25513     -1268.1866      7.8656125     -1260.321      -1277.4396     -1268.1866      0             -3.4283849    
      9300   299.85674     -1268.4273      7.7519051     -1260.6754     -1256.4089     -1268.4273      0              0.8544715    
      9400   299.92921     -1269.0471      7.7537788     -1261.2933     -1263.5785     -1269.0471      0             -0.45765021   
      9500   318.67656     -1269.8339      8.2384356     -1261.5955     -1241.1878     -1269.8339      0              4.0870995    
      9600   291.40272     -1269.3267      7.5333516     -1261.7933     -1282.3239     -1269.3267      0             -4.1117132    
      9700   312.69138     -1269.6376      8.0837067     -1261.5539     -1236.6457     -1269.6376      0              4.9884055    
      9800   318.43564     -1269.8077      8.2322073     -1261.5755     -1261.8865     -1269.8077      0             -0.062270028  
      9900   293.62032     -1269.8018      7.590681      -1262.2111     -1273.1709     -1269.8018      0             -2.194952     
     10000   305.78953     -1270.4767      7.9052798     -1262.5715     -1282.7425     -1270.4767      0             -4.0397052    
Loop time of 25.3145 on 1 procs for 10000 steps with 201 atoms

Performance: 34.131 ns/day, 0.703 hours/ns, 395.030 timesteps/s, 79.401 katom-step/s
99.9% CPU use with 1 MPI tasks x 1 OpenMP threads

MPI task timing breakdown:
Section |  min time  |  avg time  |  max time  |%varavg| %total
---------------------------------------------------------------
Pair    | 25.166     | 25.166     | 25.166     |   0.0 | 99.41
Neigh   | 0.018497   | 0.018497   | 0.018497   |   0.0 |  0.07
Comm    | 0.006656   | 0.006656   | 0.006656   |   0.0 |  0.03
Output  | 0.035028   | 0.035028   | 0.035028   |   0.0 |  0.14
Modify  | 0.076772   | 0.076772   | 0.076772   |   0.0 |  0.30
Other   |            | 0.01136    |            |       |  0.04

Nlocal:            201 ave         201 max         201 min
Histogram: 1 0 0 0 0 0 0 0 0 0
Nghost:              0 ave           0 max           0 min
Histogram: 1 0 0 0 0 0 0 0 0 0
Neighs:              0 ave           0 max           0 min
Histogram: 1 0 0 0 0 0 0 0 0 0
FullNghs:         3664 ave        3664 max        3664 min
Histogram: 1 0 0 0 0 0 0 0 0 0

Total # of neighbors = 3664
Ave neighs/atom = 18.228856
Neighbor list builds = 35
Dangerous builds = 0

print "All done!"
All done!
Total wall time: 0:00:25
