LAMMPS (2 Aug 2023 - Update 2)
OMP_NUM_THREADS environment is not set. Defaulting to 1 thread. (src/comm.cpp:98)
  using 1 OpenMP thread(s) per MPI task
Loaded 1 plugins from C:\Program Files\LAMMPS 64-bit 2Aug2023 with GUI\plugins
# Initialization

units		  metal
dimension 	      3
boundary	  f f f
atom_style	 atomic


# Atom Definition

read_data atom_definition.txt
Reading data file ...
  orthogonal box = (-0 -0 -0) to (200 200 200)
  1 by 1 by 1 MPI processor grid
  reading atoms ...
  201 atoms
  read_data CPU = 0.002 seconds


# Settings

pair_style tersoff/mod/c
pair_coeff * * Au.tersoff.modc Au


timestep         0.001
velocity         all create 300 1551 mom yes rot yes dist gaussian
fix              2 all nvt temp 300 300 $(100.0*dt) drag 0.0 tchain 1
fix              2 all nvt temp 300 300 0.10000000000000000555 drag 0.0 tchain 1
fix              3 all recenter INIT INIT INIT

thermo_style custom step temp pe ke etotal enthalpy epair emol press
thermo 100


# Run a simulation

run              10000
Neighbor list info ...
  update: every = 1 steps, delay = 0 steps, check = yes
  max neighbors/atom: 2000, page size: 100000
  master list distance cutoff = 5.35
  ghost atom cutoff = 5.35
  binsize = 2.675, bins = 75 75 75
  1 neighbor lists, perpetual/occasional/extra = 1 0 0
  (1) pair tersoff/mod/c, perpetual
      attributes: full, newton on
      pair build: full/bin/atomonly
      stencil: full/bin/3d
      bin: standard
Per MPI rank memory allocation (min/avg/max) = 4.987 | 4.987 | 4.987 Mbytes
   Step          Temp          PotEng         KinEng         TotEng        Enthalpy        E_pair         E_mol          Press     
         0   300           -612.91434      7.7556087     -605.15873     -1072.8882     -612.91434      0             -93.673151    
       100   866.91533     -645.82211      22.41152      -623.41059     -907.39741     -645.82211      0             -56.874628    
       200   239.36886     -671.08064      6.1881707     -664.89247     -810.28565     -671.08064      0             -29.118193    
       300   123.40743     -681.91777      3.1903325     -678.72744     -791.8786      -681.91777      0             -22.661016    
       400   91.7867       -687.09581      2.3728724     -684.72294     -731.53933     -687.09581      0             -9.3760154    
       500   71.247426     -688.239        1.8418905     -686.39711     -657.71532     -688.239        0              5.7441606    
       600   88.63615      -687.24003      2.2914243     -684.9486      -598.41523     -687.24003      0              17.330216    
       700   468.92957     -685.75238      12.122781     -673.6296      -634.50248     -685.75238      0              7.836068     
       800   614.76927     -676.1509       15.893033     -660.25787     -785.34884     -676.1509       0             -25.052226    
       900   278.9829      -677.99889      7.2122739     -670.78661     -805.56051     -677.99889      0             -26.991447    
      1000   277.93709     -685.74852      7.1852376     -678.56329     -737.8669      -685.74852      0             -11.876857    
      1100   213.64667     -690.05154      5.5231998     -684.52834     -657.94198     -690.05154      0              5.3245061    
      1200   186.10107     -691.23649      4.8110903     -686.42539     -607.96053     -691.23649      0              15.71432     
      1300   295.80388     -692.19673      7.6471304     -684.5496      -663.90224     -692.19673      0              4.1350883    
      1400   355.80243     -690.70147      9.1982149     -681.50326     -723.20797     -690.70147      0             -8.352288     
      1500   315.05777     -689.55284      8.1448826     -681.40796     -761.8677      -689.55284      0             -16.113838    
      1600   320.99748     -690.76722      8.2984361     -682.46879     -688.10988     -690.76722      0             -1.1297529    
      1700   311.98382     -692.6399       8.0654148     -684.57449     -655.29735     -692.6399       0              5.8633929    
      1800   285.57905     -694.20939      7.3827978     -686.82659     -645.49883     -694.20939      0              8.2767972    
      1900   285.42526     -695.42144      7.3788222     -688.04262     -679.79564     -695.42144      0              1.6516408    
      2000   273.04323     -695.49         7.0587216     -688.43128     -725.48447     -695.49         0             -7.4207192    
      2100   295.02725     -695.53413      7.627053      -687.90707     -719.45089     -695.53413      0             -6.3173447    
      2200   291.87747     -694.58802      7.5456248     -687.04239     -678.75467     -694.58802      0              1.6597999    
      2300   343.271       -695.56951      8.8742517     -686.69526     -643.75166     -695.56951      0              8.6004019    
      2400   302.92401     -696.14386      7.8312004     -688.31266     -665.61056     -696.14386      0              4.5465958    
      2500   269.25592     -697.26503      6.9608118     -690.30422     -709.50173     -697.26503      0             -3.8447257    
      2600   277.35164     -698.22527      7.1701026     -691.05517     -719.70188     -698.22527      0             -5.7371343    
      2700   313.4596      -699.13204      8.1035666     -691.02847     -688.05172     -699.13204      0              0.59615926   
      2800   301.15268     -699.03586      7.7854077     -691.25045     -690.97304     -699.03586      0              0.055557651  
      2900   299.77723     -698.95454      7.7498497     -691.20469     -675.39795     -698.95454      0              3.1656482    
      3000   287.26212     -698.56832      7.4263087     -691.14201     -689.95987     -698.56832      0              0.23674979   
      3100   329.20172     -699.66435      8.5105324     -691.15382     -698.3367      -699.66435      0             -1.4385307    
      3200   303.36309     -699.69997      7.8425513     -691.85742     -702.40022     -699.69997      0             -2.1114292    
      3300   283.65589     -699.82911      7.3330803     -692.49603     -693.2296      -699.82911      0             -0.14691364   
      3400   293.7372      -700.19222      7.5937026     -692.59852     -687.51331     -700.19222      0              1.0184253    
      3500   302.79452     -700.38829      7.8278526     -692.56043     -698.50089     -700.38829      0             -1.1897078    
      3600   306.56061     -700.60438      7.9252137     -692.67916     -683.2785      -700.60438      0              1.8826895    
      3700   309.3793      -700.63636      7.9980827     -692.63828     -709.23793     -700.63636      0             -3.3244471    
      3800   309.21523     -700.76238      7.9938411     -692.76854     -696.55201     -700.76238      0             -0.75772229   
      3900   306.86526     -701.31658      7.9330896     -693.38349     -679.39202     -701.31658      0              2.8020992    
      4000   285.0806      -701.71166      7.369912      -694.34175     -692.80764     -701.71166      0              0.30723946   
      4100   307.27956     -702.71044      7.9438        -694.76664     -706.69242     -702.71044      0             -2.3884018    
      4200   308.0582      -702.70208      7.9639296     -694.73815     -689.96705     -702.70208      0              0.95551868   
      4300   320.0528      -703.17085      8.2740143     -694.89684     -686.45515     -703.17085      0              1.6906346    
      4400   317.74013     -703.70574      8.2142272     -695.49151     -690.00833     -703.70574      0              1.0981287    
      4500   311.51428     -704.39056      8.0532761     -696.33728     -700.90667     -704.39056      0             -0.91512164   
      4600   300.90748     -705.44699      7.7790689     -697.66792     -707.73486     -705.44699      0             -2.0161268    
      4700   269.90225     -705.27509      6.9775209     -698.29756     -699.25437     -705.27509      0             -0.19162163   
      4800   277.80268     -704.74547      7.181763      -697.56371     -698.29628     -704.74547      0             -0.14671271   
      4900   316.49116     -704.61267      8.1819386     -696.43073     -701.63777     -704.61267      0             -1.0428252    
      5000   353.43188     -705.2347       9.1369312     -696.09777     -689.84659     -705.2347       0              1.2519368    
      5100   306.5284      -705.33193      7.9243811     -697.40755     -696.69323     -705.33193      0              0.14305673   
      5200   283.45116     -706.12173      7.3277875     -698.79394     -708.46104     -706.12173      0             -1.9360497    
      5300   259.45311     -706.07652      6.7073893     -699.36913     -685.57774     -706.07652      0              2.7620313    
      5400   317.27284     -706.5852       8.2021467     -698.38305     -695.04187     -706.5852       0              0.66914445   
      5500   292.52473     -705.11563      7.5623578     -697.55327     -710.13652     -705.11563      0             -2.5200719    
      5600   337.52714     -705.76507      8.7257614     -697.03931     -696.53253     -705.76507      0              0.10149298   
      5700   313.55821     -705.89535      8.1061159     -697.78924     -697.05916     -705.89535      0              0.14621472   
      5800   279.67623     -706.07075      7.230198      -698.84055     -684.58114     -706.07075      0              2.8557624    
      5900   302.79276     -707.23815      7.8278071     -699.41034     -710.48288     -707.23815      0             -2.21752      
      6000   272.43703     -706.66463      7.04305       -699.62158     -694.68957     -706.66463      0              0.98774396   
      6100   318.17918     -706.80535      8.2255774     -698.57977     -719.56506     -706.80535      0             -4.2027671    
      6200   322.74558     -706.11244      8.343628      -697.76881     -681.21195     -706.11244      0              3.3158762    
      6300   296.50279     -705.73709      7.6651987     -698.07189     -687.44153     -705.73709      0              2.1289652    
      6400   296.44831     -706.42012      7.6637903     -698.75633     -698.24601     -706.42012      0              0.10220292   
      6500   296.42931     -707.27024      7.6632991     -699.60694     -708.63556     -707.27024      0             -1.8081802    
      6600   295.80691     -707.58792      7.6472089     -699.94071     -717.0614      -707.58792      0             -3.4287945    
      6700   277.8562      -707.06106      7.1831465     -699.87791     -696.84171     -707.06106      0              0.60806625   
      6800   292.38244     -706.92882      7.5586792     -699.37014     -691.95031     -706.92882      0              1.4859853    
      6900   308.6464      -706.65158      7.9791357     -698.67244     -683.26828     -706.65158      0              3.0850243    
      7000   327.68297     -707.00251      8.4712695     -698.53124     -718.35038     -707.00251      0             -3.9692203    
      7100   303.70211     -706.91115      7.8513158     -699.05984     -715.10303     -706.91115      0             -3.2130023    
      7200   277.62962     -707.24095      7.1772889     -700.06366     -682.67086     -707.24095      0              3.4832936    
      7300   277.94009     -707.66551      7.1853152     -700.48019     -684.4282      -707.66551      0              3.2147663    
      7400   286.17788     -707.25283      7.3982788     -699.85456     -703.52246     -707.25283      0             -0.73457809   
      7500   304.13346     -706.63489      7.8624671     -698.77243     -721.83162     -706.63489      0             -4.618112     
      7600   320.19698     -706.37728      8.2777417     -698.09954     -692.12217     -706.37728      0              1.1971004    
      7700   303.0645      -706.49085      7.8348322     -698.65601     -690.1068      -706.49085      0              1.7121686    
      7800   308.85322     -707.20896      7.9844824     -699.22448     -686.30719     -707.20896      0              2.5869728    
      7900   269.98739     -706.7068       6.9797218     -699.72708     -706.8356      -706.7068       0             -1.4236392    
      8000   279.90395     -706.8712       7.236085      -699.63511     -700.13968     -706.8712       0             -0.10105091   
      8100   292.32917     -706.96243      7.5573022     -699.40513     -717.17521     -706.96243      0             -3.5588507    
      8200   296.95781     -706.72949      7.6769618     -699.05253     -689.85239     -706.72949      0              1.8425299    
      8300   315.88157     -706.7739       8.1661795     -698.60772     -687.96843     -706.7739       0              2.1307528    
      8400   322.5969      -707.06158      8.3397845     -698.72179     -693.35024     -707.06158      0              1.0757708    
      8500   299.66219     -707.25437      7.7468757     -699.5075      -696.34311     -707.25437      0              0.63373969   
      8600   297.10652     -707.55876      7.6808063     -699.87796     -716.7         -707.55876      0             -3.3689849    
      8700   283.64429     -707.30286      7.3327804     -699.97008     -706.16859     -707.30286      0             -1.2413886    
      8800   264.53297     -706.57209      6.8387141     -699.73338     -688.61779     -706.57209      0              2.2261415    
      8900   308.39875     -706.77312      7.9727335     -698.80039     -686.78107     -706.77312      0              2.4071339    
      9000   290.53393     -705.97437      7.5108917     -698.46347     -721.87105     -705.97437      0             -4.6878843    
      9100   332.50592     -707.28545      8.5959527     -698.6895      -697.57127     -707.28545      0              0.22394882   
      9200   294.27332     -707.67167      7.6075624     -700.06411     -682.51324     -707.67167      0              3.5149473    
      9300   272.21484     -708.26557      7.0373059     -701.22826     -709.88934     -708.26557      0             -1.7345719    
      9400   271.98143     -708.26138      7.0312718     -701.23011     -702.04204     -708.26138      0             -0.16260836   
      9500   312.23637     -708.14538      8.0719436     -700.07344     -694.32245     -708.14538      0              1.151762     
      9600   323.47143     -707.0907       8.3623929     -698.72831     -696.70722     -707.0907       0              0.40476743   
      9700   363.01505     -707.7637       9.3846755     -698.37903     -694.86484     -707.7637       0              0.70379444   
      9800   280.83777     -707.20039      7.2602262     -699.94016     -698.67273     -707.20039      0              0.25383204   
      9900   305.71719     -708.68433      7.9034096     -700.78092     -716.61306     -708.68433      0             -3.1707347    
     10000   295.38423     -708.68022      7.6362818     -701.04394     -689.3308      -708.68022      0              2.3458143    
Loop time of 105.339 on 1 procs for 10000 steps with 201 atoms

Performance: 8.202 ns/day, 2.926 hours/ns, 94.931 timesteps/s, 19.081 katom-step/s
100.0% CPU use with 1 MPI tasks x 1 OpenMP threads

MPI task timing breakdown:
Section |  min time  |  avg time  |  max time  |%varavg| %total
---------------------------------------------------------------
Pair    | 105.21     | 105.21     | 105.21     |   0.0 | 99.87
Neigh   | 0.002852   | 0.002852   | 0.002852   |   0.0 |  0.00
Comm    | 0.003784   | 0.003784   | 0.003784   |   0.0 |  0.00
Output  | 0.038598   | 0.038598   | 0.038598   |   0.0 |  0.04
Modify  | 0.077077   | 0.077077   | 0.077077   |   0.0 |  0.07
Other   |            | 0.01129    |            |       |  0.01

Nlocal:            201 ave         201 max         201 min
Histogram: 1 0 0 0 0 0 0 0 0 0
Nghost:              0 ave           0 max           0 min
Histogram: 1 0 0 0 0 0 0 0 0 0
Neighs:              0 ave           0 max           0 min
Histogram: 1 0 0 0 0 0 0 0 0 0
FullNghs:         7040 ave        7040 max        7040 min
Histogram: 1 0 0 0 0 0 0 0 0 0

Total # of neighbors = 7040
Ave neighs/atom = 35.024876
Neighbor list builds = 5
Dangerous builds = 0

print "All done!"
All done!
Total wall time: 0:01:45
